LAMMPS data file via write_data, version 16 Mar 2018, timestep = 5000

714 atoms
12 atom types
403 bonds
8 bond types
260 angles
13 angle types
132 dihedrals
18 dihedral types

-1.8739702137591564e+01 1.8739702137591564e+01 xlo xhi
-7.0273884441013035e+00 7.0273884441013035e+00 ylo yhi
-7.0273884441013035e+00 7.0273884441013035e+00 zlo zhi

Masses

1 1.008
2 1.008
3 12.011
4 12.011
5 15.9994
6 15.9994
7 32.06
8 196.966
9 1.008
10 15.9994
11 35.45
12 22.9898

Pair Coeffs # lj/charmmfsw/coul/long

1 0.028 2.38761 0.028 2.38761
2 0.024 2.38761 0.024 2.38761
3 0.056 3.58141 0.01 3.38542
4 0.078 3.63487 0.01 3.38542
5 0.1 2.93997 0.1 2.93997
6 0.12 3.02906 0.12 3.02906
7 0.47 3.74177 0.47 3.74177
8 5.29 2.62904 5.29 2.62904
9 0.046 0.400014 0.046 0.400014
10 0.1521 3.15057 0.1521 3.15057
11 0.15 4.04468 0.15 4.04468
12 0.0469 2.42993 0.0469 2.42993

Bond Coeffs # harmonic

1 222.5 1.53
2 222.5 1.528
3 309 1.111
4 340 1.43
5 322 1.111
6 450 0.9572
7 540 1.448
8 250 1.575

Angle Coeffs # charmm

1 58.35 113.6 11.16 2.561
2 58 115 8 2.561
3 26.5 110.1 22.53 2.179
4 75.7 110.1 0 0
5 34.6 110.1 22.53 2.179
6 15 109 27 1.9
7 34.6 110.1 22.53 2.179
8 35.5 109 5.4 1.802
9 60 109.5 0 0
10 35.5 108.4 5.4 1.802
11 55 104.52 0 0
12 130 109.47 35 2.45
13 85 98 0 0

Dihedral Coeffs # charmmfsw

1 0.101 2 0 1
2 0.142 3 180 0
3 0.074 4 0 0
4 0.097 5 0 0
5 0.162 2 0 1
6 0.047 3 180 0
7 0.105 4 0 0
8 0.177 5 0 0
9 0.19 3 0 1
10 0 3 0 1
11 0.16 3 0 1
12 0 3 0 1
13 0 3 0 1
14 0.19 3 0 1
15 0.19 3 0 1
16 0.19 3 0 1
17 0.16 3 0 1
18 0 3 0 1

Atoms # full

1 1 8 0.0000000000000000e+00 -1.1843570178993700e+01 6.8636571013995695e+00 6.9913066911181385e+00 0 -1 -1
2 2 8 0.0000000000000000e+00 -1.2695315919652256e+01 -4.8447921777673573e+00 -5.4181664764942301e+00 0 0 0
3 3 8 0.0000000000000000e+00 -1.0441248980064122e+01 -6.6149529905261231e+00 -4.5962244285562761e+00 0 0 0
4 4 8 0.0000000000000000e+00 -1.0185578308209131e+01 -4.6591984328456135e+00 -6.8393829047729469e+00 0 0 0
5 5 8 0.0000000000000000e+00 -1.3051012278097787e+01 -6.7296045502593360e+00 -3.1754826563432292e+00 0 0 0
6 6 8 0.0000000000000000e+00 -1.4791657678700778e+01 -4.6491554191350790e+00 -1.4218980095337512e+00 0 0 0
8 8 8 0.0000000000000000e+00 -1.0366332962379078e+01 -6.0429802974885796e+00 -1.8018465166254840e+00 0 0 0
18 18 8 0.0000000000000000e+00 -1.2111826429608847e+01 -2.1392054333967874e+00 -4.7665497985826910e+00 0 0 0
19 19 8 0.0000000000000000e+00 -9.9984969961184245e+00 -3.9080189727162713e+00 -4.0842899714889196e+00 0 0 0
20 20 8 0.0000000000000000e+00 -9.6696105191651487e+00 -1.7848149520933978e+00 -6.3101033848522237e+00 0 0 0
21 21 8 0.0000000000000000e+00 -1.4771808060913504e+01 -2.6507432259596611e+00 -3.6178476343376467e+00 0 0 0
23 23 8 0.0000000000000000e+00 -1.2318561230502333e+01 -4.0608045821863321e+00 -2.6439475371872359e+00 0 0 0
177 261 10 -8.3399999999999996e-01 -1.5816517010904835e+01 -5.2362539212475543e+00 -4.4449333150828840e+00 0 0 0
178 261 9 4.1699999999999998e-01 -1.5510116826402633e+01 -4.5307908248598761e+00 -5.0140220409986789e+00 0 0 0
179 261 9 4.1699999999999998e-01 -1.5137384801487627e+01 -5.9072602394168969e+00 -4.5077910564033594e+00 0 0 0
183 263 10 -8.3399999999999996e-01 -1.7808637580369084e+01 -6.2421533689945008e+00 -2.5370774717409317e+00 0 0 0
184 263 9 4.1699999999999998e-01 -1.7418756692593892e+01 -5.7951729454304930e+00 -3.2878271043394700e+00 0 0 0
219 275 10 -8.3399999999999996e-01 -1.7938315799564762e+01 -2.1789961447507524e+00 -5.3279803074943022e-01 0 0 0
642 416 9 4.1699999999999998e-01 -1.8382226608675062e+01 -6.2475858173708003e+00 -6.7408700109535387e+00 1 0 1
221 275 9 4.1699999999999998e-01 -1.7578758580228588e+01 -1.6083351129704431e+00 -1.2113888790023477e+00 0 0 0
25 25 8 0.0000000000000000e+00 -1.4628997680083494e+01 -1.4923832129609922e+00 -6.6781180857320255e-01 0 0 0
237 281 10 -8.3399999999999996e-01 -1.4591665221427192e+01 -6.3362170906018278e-01 -5.9050466423992027e+00 0 0 1
24 24 8 0.0000000000000000e+00 -9.6324991416319854e+00 -1.0529853045576250e+00 -3.5143222240072931e+00 0 0 0
259 288 9 4.1699999999999998e-01 -1.7624803199883651e+01 4.8149228574848362e+00 -5.6105442245382893e+00 0 0 0
208 271 9 4.1699999999999998e-01 -1.7351444720621394e+01 -3.9021528850837530e+00 -4.7008721803884157e+00 0 0 0
173 259 9 4.1699999999999998e-01 -1.5213764210971034e+01 -2.3213249803202123e+00 -6.3523013069004675e+00 0 0 0
126 126 8 0.0000000000000000e+00 -7.2577422725233358e+00 5.3320938897267141e+00 6.3781585935921044e+00 0 0 0
207 271 10 -8.3399999999999996e-01 -1.8300326689666790e+01 -4.0081675507136429e+00 -4.7625741302139488e+00 0 0 0
7 7 8 0.0000000000000000e+00 -1.2742881147700064e+01 -6.1059039743855124e+00 -4.1984743129402613e-01 0 0 0
686 431 9 4.1699999999999998e-01 -1.7771289046370022e+01 -3.1346699016858270e-01 -5.2232399508938894e+00 1 0 0
233 279 9 4.1699999999999998e-01 -1.8133691368536141e+01 3.9923117341501868e+00 2.4953555625820236e+00 0 -1 0
171 259 10 -8.3399999999999996e-01 -1.5545661630006745e+01 -3.2186842758376710e+00 -6.3485771230901653e+00 0 0 0
172 259 9 4.1699999999999998e-01 -1.5874830272964836e+01 -3.3563867419211939e+00 6.8184457133097496e+00 0 0 -1
201 269 10 -8.3399999999999996e-01 -1.6930454462270276e+01 -6.8837919286677280e+00 6.3727934741352588e+00 0 0 0
202 269 9 4.1699999999999998e-01 -1.6696716790624219e+01 6.5874690038562456e+00 5.6514749720484563e+00 0 -1 0
203 269 9 4.1699999999999998e-01 -1.6788006074997309e+01 -6.0038144889403169e+00 6.0252743345546929e+00 0 0 0
86 86 8 0.0000000000000000e+00 -9.9811397284689551e+00 -3.1038086353842300e+00 -1.3930575428829455e+00 0 0 0
22 22 8 0.0000000000000000e+00 -1.2157529353368872e+01 -1.1600217852234360e+00 -2.0951014492735514e+00 0 0 0
106 106 8 0.0000000000000000e+00 -9.0602285454138016e+00 2.2039398046327463e+00 3.4322522612737014e+00 0 0 0
356 320 9 4.1699999999999998e-01 -9.3209142955774738e-01 3.4082400173250278e+00 5.8917302116637558e+00 0 0 0
186 264 10 -8.3399999999999996e-01 -1.7653450551737588e+01 -4.8220625421879131e+00 -1.0859283563849687e-02 0 0 0
188 264 9 4.1699999999999998e-01 -1.7863251000053776e+01 -3.9308304666816030e+00 -2.8854656148148905e-01 0 0 0
187 264 9 4.1699999999999998e-01 -1.7744929307434127e+01 -5.3484253928796415e+00 -8.0458238610961796e-01 0 0 0
110 110 8 0.0000000000000000e+00 -6.5043291754277242e+00 3.0696690812154745e+00 4.6652289826341686e+00 0 0 0
112 112 8 0.0000000000000000e+00 -4.5149917369233386e+00 1.1026666454880942e+00 5.5899991839375645e+00 0 0 0
105 105 8 0.0000000000000000e+00 -9.0432606305352685e+00 1.4234417108097457e+00 7.0923120636560189e-01 0 0 0
65 65 8 0.0000000000000000e+00 -7.9215302803356575e+00 -6.3666622021240400e+00 -5.9650921486252644e+00 0 0 0
66 66 8 0.0000000000000000e+00 -7.8889698453694646e+00 -5.8083056014694741e+00 -3.1794955446583986e+00 0 0 0
67 67 8 0.0000000000000000e+00 -5.3826173843075171e+00 -5.5608228973775482e+00 -4.7705515998059553e+00 0 0 0
70 70 8 0.0000000000000000e+00 -7.9318798188927762e+00 -5.0270065686887380e+00 -4.7174008463788031e-01 0 0 0
71 71 8 0.0000000000000000e+00 -5.8426901316844404e+00 -6.8899317821173991e+00 4.5329485013033555e-01 0 0 0
72 72 8 0.0000000000000000e+00 -3.3027841878707349e+00 -6.7438493397308861e+00 -1.2108723534622063e+00 0 0 0
81 81 8 0.0000000000000000e+00 -7.5401664741145478e+00 -3.6605722390513082e+00 -5.3427971644249777e+00 0 0 0
82 82 8 0.0000000000000000e+00 -7.1648624613345913e+00 -9.1381347626609433e-01 -4.9600066152650744e+00 0 0 0
83 83 8 0.0000000000000000e+00 -5.5166081843866639e+00 -4.8035554949065986e+00 -1.8033296492698643e+00 0 0 0
84 84 8 0.0000000000000000e+00 -4.8824420696929653e+00 -2.9655698282102829e+00 -4.1564220338235609e+00 0 0 0
85 85 8 0.0000000000000000e+00 -7.6049004986130893e+00 -2.9770264531592439e+00 -2.7119467560959327e+00 0 0 0
87 87 8 0.0000000000000000e+00 -6.1608501980161599e+00 -2.5479522237048995e+00 -1.9477915075003960e-01 0 0 0
88 88 8 0.0000000000000000e+00 -5.7149006477390483e+00 -7.3322260937980577e-01 -2.5571821516437101e+00 0 0 0
285 297 10 -8.3399999999999996e-01 -2.1865429163808123e+00 -4.2686138222410701e+00 -3.7563697029785130e+00 0 0 0
287 297 9 4.1699999999999998e-01 -1.4065730728480936e+00 -4.3857890217518580e+00 -3.2147608394642795e+00 0 0 0
288 298 10 -8.3399999999999996e-01 -2.2413795310360705e+00 -1.4571261333228387e+00 -2.6931247515938086e+00 0 0 0
289 298 9 4.1699999999999998e-01 -2.5190557748289528e+00 -9.6116694831063132e-01 -3.4627624549523333e+00 0 0 0
290 298 9 4.1699999999999998e-01 -2.0479243238276830e+00 -7.9020011493309461e-01 -2.0349403612996202e+00 0 0 0
306 304 10 -8.3399999999999996e-01 -2.1868954486748180e+00 8.1693674994152499e-01 -4.5037686166416098e+00 0 0 0
369 325 10 -8.3399999999999996e-01 -4.2896199382762035e-01 -1.1120643749907675e+00 -5.0940026655910984e+00 0 0 0
101 101 8 0.0000000000000000e+00 -8.2647830130184072e+00 -6.3758590668127191e-01 -1.1300222323604787e+00 0 0 0
111 111 8 0.0000000000000000e+00 -4.6593019983918147e+00 -8.8426531757295113e-01 -6.2344937327444248e+00 0 0 1
286 297 9 4.1699999999999998e-01 -2.4657671083829165e+00 -3.3699451755708876e+00 -3.5835942281019832e+00 0 0 0
371 325 9 4.1699999999999998e-01 -1.1187517590571865e+00 -4.4932518251463893e-01 -5.0742867250864991e+00 0 0 0
291 299 10 -8.3399999999999996e-01 -1.0007986116852443e+00 -4.0753282080185453e+00 -1.1243274086011601e+00 0 0 0
293 299 9 4.1699999999999998e-01 -1.8970240731046708e+00 -3.7478390398012360e+00 -1.1946960952288173e+00 0 0 0
292 299 9 4.1699999999999998e-01 -7.7771505688441778e-01 -3.9670879279703475e+00 -2.0023909947830276e-01 0 0 0
350 318 9 4.1699999999999998e-01 -1.3994635088235796e+00 6.2746083469439267e+00 2.7253626735445931e+00 0 0 0
355 320 9 4.1699999999999998e-01 -1.0713991344922462e+00 4.4273961894407936e+00 4.7818736177121703e+00 0 0 0
317 307 9 4.1699999999999998e-01 -2.4624950007549451e+00 1.5407476242481764e+00 1.9983626513474579e+00 0 0 0
315 307 10 -8.3399999999999996e-01 -1.7558357333734094e+00 9.0180624436754453e-01 1.9100003254923603e+00 0 0 0
374 326 9 4.1699999999999998e-01 -9.8959279628310171e-01 5.7358091465099097e+00 -1.2780446643935308e+00 0 -1 0
256 287 9 4.1699999999999998e-01 -1.7818842963855133e+01 1.1913960735446754e+00 4.1148673316141959e-01 0 0 0
300 302 10 -8.3399999999999996e-01 -2.5276175757874135e+00 -4.5721493689200834e+00 -6.6978447340429765e+00 0 0 1
301 302 9 4.1699999999999998e-01 -2.3699757545125770e+00 -4.6190534717035518e+00 -5.7553097580602230e+00 0 0 1
627 411 9 4.1699999999999998e-01 -1.8313732928171696e+01 4.7901859890678669e+00 -7.0886548683978923e-01 1 -1 0
372 326 10 -8.3399999999999996e-01 -6.7368357820885549e-01 5.9337150768453295e+00 -2.1592124704827311e+00 0 -1 0
185 263 9 4.1699999999999998e-01 -1.8648922246805075e+01 -6.5658334157584815e+00 -2.8604594111359685e+00 0 0 0
216 274 10 -8.3399999999999996e-01 -1.7045835229886045e+01 5.5085375803674452e-02 -1.8430264028508496e+00 0 0 0
217 274 9 4.1699999999999998e-01 -1.6280730935408023e+01 1.2730276444611022e-01 -2.4129607010207197e+00 0 0 0
266 290 9 4.1699999999999998e-01 -1.7190509386643317e+01 6.4251005099637695e+00 -1.6162787507228646e+00 0 0 0
30 30 8 0.0000000000000000e+00 -1.1957256081786181e+01 -1.5483447615482060e-01 6.9577670217052106e+00 0 0 0
264 290 10 -8.3399999999999996e-01 -1.6610773619987022e+01 5.7391584324809948e+00 -1.2864137449723652e+00 0 0 0
260 288 9 4.1699999999999998e-01 -1.6639193436228094e+01 5.6631950244282567e+00 -6.3844151430724096e+00 0 0 0
238 281 9 4.1699999999999998e-01 -1.4360029905493693e+01 -6.6923657358083499e-01 -4.9774152358395218e+00 0 0 1
258 288 10 -8.3399999999999996e-01 -1.6694497524680074e+01 4.8925030737282960e+00 -5.8201484041969849e+00 0 0 0
218 274 9 4.1699999999999998e-01 -1.7789381457199159e+01 2.4497960747567582e-01 -2.4144318889962246e+00 0 0 0
239 281 9 4.1699999999999998e-01 -1.5378955344953061e+01 -9.0760347644031292e-02 -5.9350301905216272e+00 0 0 1
33 33 8 0.0000000000000000e+00 -1.1482926892423716e+01 2.8657839389739870e+00 -6.5570937211175950e+00 0 0 0
34 34 8 0.0000000000000000e+00 -1.2110425384781887e+01 5.0736348687515047e+00 -4.6745867892479245e+00 0 0 0
37 37 8 0.0000000000000000e+00 -1.1880043327849688e+01 7.0526667522529074e-01 -4.4894187786128761e+00 0 0 0
38 38 8 0.0000000000000000e+00 -1.2629734401032977e+01 2.8458720193908871e+00 -2.5431646894918023e+00 0 0 0
39 39 8 0.0000000000000000e+00 -1.0480323055165515e+01 1.0596274237881271e+00 -1.7842224886180338e+00 0 0 0
40 40 8 0.0000000000000000e+00 -1.0082577291211653e+01 3.0163145557588802e+00 -3.9400734716834656e+00 0 0 0
50 50 8 0.0000000000000000e+00 -1.4295988750352892e+01 6.8185017401209560e+00 -5.6584677049881149e+00 0 0 0
51 51 8 0.0000000000000000e+00 -9.6809871843529773e+00 5.0133115730327553e+00 -6.1175714506056043e+00 0 0 0
53 53 8 0.0000000000000000e+00 -1.4569098053082286e+01 4.8206061126894859e+00 -3.3340606667750179e+00 0 0 0
56 56 8 0.0000000000000000e+00 -1.0735430913592449e+01 5.3207184674469996e+00 -2.2177644617626333e+00 0 0 0
210 272 10 -8.3399999999999996e-01 -1.4478584077208147e+01 2.1679136157229593e+00 -5.0636701232312031e+00 0 0 0
211 272 9 4.1699999999999998e-01 -1.4031154952728444e+01 2.6975718511544766e+00 -5.7229826452504895e+00 0 0 0
212 272 9 4.1699999999999998e-01 -1.5318939524332226e+01 1.9463542679759840e+00 -5.4638406909770980e+00 0 0 0
222 276 10 -8.3399999999999996e-01 -1.4561435776938449e+01 5.3745296492698369e-01 -2.9879420313236453e+00 0 0 0
223 276 9 4.1699999999999998e-01 -1.4190936133444850e+01 1.0176178608812805e+00 -2.2479469482148735e+00 0 0 0
224 276 9 4.1699999999999998e-01 -1.4428185696342965e+01 1.1146080845960942e+00 -3.7393129789021748e+00 0 0 0
316 307 9 4.1699999999999998e-01 -1.0064377961090187e+00 1.3118246846797383e+00 2.3409401989634020e+00 0 0 0
250 285 9 4.1699999999999998e-01 -1.8467419225391239e+01 2.5021099420227078e+00 -2.9205171048687717e+00 0 0 0
57 57 8 0.0000000000000000e+00 -1.5367383216173796e+01 2.9155374895011175e+00 -1.1555274412205883e+00 0 0 0
241 282 9 4.1699999999999998e-01 -1.7701903912763395e+01 1.7825940346661096e+00 -6.0348138616955556e+00 0 0 1
240 282 10 -8.3399999999999996e-01 -1.6940957048182938e+01 1.2071009982418541e+00 -6.1068458773895840e+00 0 0 1
54 54 8 0.0000000000000000e+00 -1.3302719602032111e+01 5.1746655213471122e+00 -8.2575460101464593e-01 0 0 0
653 420 9 4.1699999999999998e-01 -1.7436660995368022e+01 4.4512684428523688e+00 -2.5909856739716552e+00 1 0 0
654 420 9 4.1699999999999998e-01 -1.6934770862876082e+01 4.2450316222489128e+00 -4.0035871717139937e+00 1 0 0
220 275 9 4.1699999999999998e-01 -1.8737326704216809e+01 -1.7373447484047890e+00 -2.4653482331805687e-01 0 0 0
242 282 9 4.1699999999999998e-01 -1.6933021909167529e+01 9.3353487678311797e-01 -7.0236449834222956e+00 0 0 1
41 41 8 0.0000000000000000e+00 -1.3047536317300581e+01 9.0618054344970478e-01 -2.8818081504302384e-01 0 0 0
274 293 9 4.1699999999999998e-01 -1.7138592136710720e+01 4.0822175036855857e+00 6.6380157449330213e+00 0 0 0
343 316 9 4.1699999999999998e-01 -5.3311750562142990e-01 2.9480994538386334e+00 9.6354717186587369e-01 0 0 0
652 420 10 -8.3399999999999996e-01 -1.7592643197702440e+01 3.9355341171597384e+00 -3.3816241634354953e+00 1 0 0
209 271 9 4.1699999999999998e-01 -1.8560171990364630e+01 -3.4301346338420617e+00 -5.4793607468440202e+00 0 0 0
308 304 9 4.1699999999999998e-01 -2.0640584025667827e+00 1.2684676099430021e+00 -5.3383065035862209e+00 0 0 0
55 55 8 0.0000000000000000e+00 -8.6001272918401490e+00 3.3067305488711600e+00 -1.5971159416820564e+00 0 0 0
348 318 10 -8.3399999999999996e-01 -1.5797360487777468e+00 5.8346839749527213e+00 3.5556580434037368e+00 0 0 0
334 313 9 4.1699999999999998e-01 -1.3724953021675503e+00 4.9195816843153182e+00 -5.1861771313261347e+00 0 0 0
335 313 9 4.1699999999999998e-01 -7.7995170602769193e-01 5.1388367336489260e+00 -3.8111546174628987e+00 0 0 0
307 304 9 4.1699999999999998e-01 -1.9884633907814830e+00 1.4784576300295438e+00 -3.8416233444140899e+00 0 0 0
312 306 10 -8.3399999999999996e-01 -1.1497668144243427e+00 -1.2121764461885398e-01 -4.9627506615937733e-01 0 0 0
314 306 9 4.1699999999999998e-01 -1.5303006226629812e+00 -1.0952602016611390e-01 3.8149391319501813e-01 0 0 0
69 69 8 0.0000000000000000e+00 -8.2331482390376376e+00 6.1621790550839322e+00 -9.2549986138577189e-01 0 -1 0
35 35 8 0.0000000000000000e+00 -9.3188200415840843e+00 8.6930345385547536e-01 -5.7878281541007608e+00 0 0 0
98 98 8 0.0000000000000000e+00 -7.8942986235751729e+00 1.2764407153808044e+00 -3.2918244712579732e+00 0 0 0
99 99 8 0.0000000000000000e+00 -5.2089104653036546e+00 1.3164714276109475e+00 -4.5914383624601598e+00 0 0 0
102 102 8 0.0000000000000000e+00 -6.4774787530153493e+00 1.5580567321384731e+00 -7.5967970300431809e-01 0 0 0
104 104 8 0.0000000000000000e+00 -3.9745520080973904e+00 1.6629046421012177e+00 -2.0255873829031010e+00 0 0 0
113 113 8 0.0000000000000000e+00 -7.5199069388870381e+00 3.3058179165700956e+00 -5.4372258295976348e+00 0 0 0
114 114 8 0.0000000000000000e+00 -8.2323224262703292e+00 5.4552245406735125e+00 -3.6602042144430418e+00 0 0 0
115 115 8 0.0000000000000000e+00 -3.6014670302151774e+00 3.7205594904577968e+00 -4.3700192501898592e+00 0 0 0
116 116 8 0.0000000000000000e+00 -5.6427834713827227e+00 5.6730921349774182e+00 -5.0910424447625111e+00 0 0 0
117 117 8 0.0000000000000000e+00 -6.0685625648325505e+00 3.5445119821364237e+00 -2.9555483105725333e+00 0 0 0
119 119 8 0.0000000000000000e+00 -3.6082362234552150e+00 4.4211736914702389e+00 -1.6420900410658215e+00 0 0 0
120 120 8 0.0000000000000000e+00 -5.7380431113721766e+00 6.3476197669131622e+00 -2.3543898696310599e+00 0 0 0
324 310 10 -8.3399999999999996e-01 -2.3745654313980644e+00 5.2632608122760196e+00 6.8762627246420447e+00 0 0 -1
325 310 9 4.1699999999999998e-01 -2.2376254175840309e+00 5.9307435741068169e+00 6.2045967215915478e+00 0 0 -1
97 97 8 0.0000000000000000e+00 -6.8677410818281182e+00 1.0882650442032613e+00 7.0087344053118521e+00 0 0 -1
331 312 9 4.1699999999999998e-01 -1.0178184044023197e-01 1.1769955668844219e+00 -6.5929663377333050e+00 0 0 0
318 308 10 -8.3399999999999996e-01 -2.9465529887869337e+00 3.3736674223826206e+00 3.0359835684343786e+00 0 0 0
333 313 10 -8.3399999999999996e-01 -8.1655460721882989e-01 4.5050676723067369e+00 -4.5269886191266977e+00 0 0 0
336 314 10 -8.3399999999999996e-01 -1.2130086301871579e+00 2.3774555682135468e+00 -2.2910533766270200e+00 0 0 0
337 314 9 4.1699999999999998e-01 -1.5839843286442310e+00 2.7206480255776206e+00 -1.4786385261202293e+00 0 0 0
338 314 9 4.1699999999999998e-01 -8.3388398469326575e-01 3.1421239270133263e+00 -2.7234584216220972e+00 0 0 0
313 306 9 4.1699999999999998e-01 -1.0822320260652916e+00 8.0132907217234894e-01 -7.4075767802457015e-01 0 0 0
321 309 10 -8.3399999999999996e-01 -2.0305553715718894e+00 2.3335830455895188e+00 -6.7839211870788469e+00 0 0 1
323 309 9 4.1699999999999998e-01 -1.9601820158908474e+00 3.2607462907960176e+00 -6.5584507881730953e+00 0 0 1
118 118 8 0.0000000000000000e+00 -6.0900954876162103e+00 4.2881577790348828e+00 -2.9709062935914776e-01 0 0 0
326 310 9 4.1699999999999998e-01 -2.6837097366469820e+00 5.7506845540404754e+00 -6.4154486752558473e+00 0 0 0
357 321 10 -8.3399999999999996e-01 -2.8786100397259808e+00 6.7161922705387749e+00 -4.9371508149783558e+00 0 0 1
103 103 8 0.0000000000000000e+00 -4.4198008492555338e+00 -3.3713884134800853e-01 -3.9119043105567464e-02 0 0 0
359 321 9 4.1699999999999998e-01 -2.1107311988767705e+00 -6.8585183737050261e+00 -5.2458918960467571e+00 0 1 1
28 28 8 0.0000000000000000e+00 -1.0843995080270730e+01 -8.6739560318415432e-01 3.8728565024968908e-01 0 0 0
205 270 9 4.1699999999999998e-01 -1.7708987509654257e+01 -3.2502446094947661e+00 2.4612129414582444e+00 0 0 0
17 17 8 0.0000000000000000e+00 -1.2462182245813253e+01 -2.9781237170082369e+00 6.5250625503817563e+00 0 0 -1
9 9 8 0.0000000000000000e+00 -1.5359892649234279e+01 -6.3559245022380244e+00 6.9464178996609505e-01 0 0 0
192 266 10 -8.3399999999999996e-01 -1.8379436013800799e+01 -6.8394047277591090e+00 1.8331022418628589e+00 0 0 0
194 266 9 4.1699999999999998e-01 -1.8379057487820834e+01 -6.4474565425066075e+00 2.7059127796098341e+00 0 0 0
175 260 9 4.1699999999999998e-01 -1.5660884880109771e+01 -3.9707648392848949e-01 5.2231384000311234e+00 0 0 -1
176 260 9 4.1699999999999998e-01 -1.4704764496866172e+01 -9.6164912172366623e-01 6.2512236696231156e+00 0 0 -1
174 260 10 -8.3399999999999996e-01 -1.5185100415685362e+01 -1.1935658098675512e+00 5.4569223642236437e+00 0 0 -1
10 10 8 0.0000000000000000e+00 -1.5066676992170139e+01 -3.5794540555201411e+00 1.3593246878647740e+00 0 0 0
11 11 8 0.0000000000000000e+00 -1.2817460556632845e+01 -5.2955053878136154e+00 2.1887813005261609e+00 0 0 0
12 12 8 0.0000000000000000e+00 -1.2383501576351570e+01 -3.2425004806216449e+00 -1.8914144263903587e-02 0 0 0
13 13 8 0.0000000000000000e+00 -1.5459999900986954e+01 -5.6587706818657013e+00 3.5510116665517337e+00 0 0 0
14 14 8 0.0000000000000000e+00 -1.4232456503383023e+01 -5.2216763306623957e+00 6.1409055304227724e+00 0 0 0
15 15 8 0.0000000000000000e+00 -1.1619990783556805e+01 -5.1055715905320049e+00 4.8071545986346216e+00 0 0 0
16 16 8 0.0000000000000000e+00 -1.1214540692821839e+01 -3.0308019134016897e+00 2.6327664713936514e+00 0 0 0
26 26 8 0.0000000000000000e+00 -1.3353899216428598e+01 -1.2249135731295642e+00 1.8307714344008499e+00 0 0 0
27 27 8 0.0000000000000000e+00 -9.5028830419378956e+00 -5.6667267432073043e-01 2.8572193086967186e+00 0 0 0
29 29 8 0.0000000000000000e+00 -1.3813406523738488e+01 -3.2779363786602587e+00 3.9824814601085698e+00 0 0 0
31 31 8 0.0000000000000000e+00 -9.9092037469535033e+00 -2.7941832064704952e+00 5.0945659347069530e+00 0 0 0
32 32 8 0.0000000000000000e+00 -1.2027721568520290e+01 -8.9706850693522799e-01 4.2702045523449179e+00 0 0 0
647 418 9 4.1699999999999998e-01 -1.8425364272181049e+01 -2.0430484274158598e+00 -6.6211502076583786e+00 1 0 0
198 268 10 -8.3399999999999996e-01 -1.7298181294407733e+01 -4.0503415839747579e+00 5.2546689397629116e+00 0 0 0
199 268 9 4.1699999999999998e-01 -1.7976987125609007e+01 -3.6665018613849707e+00 5.8090265190993460e+00 0 0 0
200 268 9 4.1699999999999998e-01 -1.7162401457622806e+01 -3.4058597009015061e+00 4.5606739366240703e+00 0 0 0
225 277 10 -8.3399999999999996e-01 -1.6669793546177239e+01 -2.0301878100463639e+00 3.3935579016053463e+00 0 0 0
226 277 9 4.1699999999999998e-01 -1.7399167967809831e+01 -1.4269858620848197e+00 3.2536201458105030e+00 0 0 0
227 277 9 4.1699999999999998e-01 -1.6102233838402366e+01 -1.5794914027213780e+00 4.0181957600981697e+00 0 0 0
193 266 9 4.1699999999999998e-01 -1.8327096804073371e+01 -6.0941020357249673e+00 1.2354325961834292e+00 0 0 0
124 124 8 0.0000000000000000e+00 -3.5304010892772695e+00 5.3479816236224025e+00 9.4788992438665698e-01 0 0 0
125 125 8 0.0000000000000000e+00 -8.6277248372774249e+00 4.9566514935575512e+00 3.8834440394931207e+00 0 0 0
204 270 10 -8.3399999999999996e-01 -1.8397245460058624e+01 -3.9094519071911940e+00 2.3765441789721446e+00 0 0 0
73 73 8 0.0000000000000000e+00 -1.0337410751865857e+01 -5.0989225416000554e+00 9.1247549336803413e-01 0 0 0
74 74 8 0.0000000000000000e+00 -9.0804432571045695e+00 -4.9511065010088462e+00 3.4856995572265923e+00 0 0 0
52 52 8 0.0000000000000000e+00 -9.3787889469642138e+00 -6.9844818886029856e+00 5.7535716697680908e+00 0 1 -1
206 270 9 4.1699999999999998e-01 -1.8275748797711891e+01 -4.2718083616761469e+00 1.4994139143898941e+00 0 0 0
344 316 9 4.1699999999999998e-01 -1.0985898908268510e+00 4.2758520362872545e+00 5.0837520975596906e-01 0 0 0
442 349 9 4.1699999999999998e-01 -6.1554482370920383e-01 -5.8746481538764401e+00 5.7960399298636780e+00 0 1 0
354 320 10 -8.3399999999999996e-01 -8.3700433674570363e-01 3.5143418248336697e+00 4.9456214151091444e+00 0 0 0
347 317 9 4.1699999999999998e-01 -9.5496491559987362e-01 -6.9965249327512113e+00 1.1016879915955364e+00 0 1 0
47 47 8 0.0000000000000000e+00 -9.4694761398808911e+00 1.2967666401808042e-01 5.5612142831213323e+00 0 0 0
279 295 10 -8.3399999999999996e-01 -2.1079244883586661e+00 -1.7968534555745057e+00 6.4033563187770088e+00 0 0 -1
280 295 9 4.1699999999999998e-01 -1.1604692283051286e+00 -1.6794384779709173e+00 6.3403980555301267e+00 0 0 -1
281 295 9 4.1699999999999998e-01 -2.4525978718009434e+00 -1.3985948687935075e+00 5.6046000757429209e+00 0 0 -1
687 431 9 4.1699999999999998e-01 -1.8248874003062653e+01 -1.4479148428298450e+00 -4.3430056851113950e+00 1 0 0
283 296 9 4.1699999999999998e-01 -8.6741655863070477e-01 6.1375395583877612e-02 4.4458349867300804e+00 0 0 -1
129 129 7 1.3300000000000001e+00 -5.1364635468591047e-01 -4.6974763894122074e+00 2.4623092630398915e+00 0 0 0
68 68 8 0.0000000000000000e+00 -5.2501069423688094e+00 -3.5610920325510800e+00 -6.8816325069097104e+00 0 0 0
75 75 8 0.0000000000000000e+00 -6.6986772215509784e+00 -4.4849830184807384e+00 1.9801170855267110e+00 0 0 0
76 76 8 0.0000000000000000e+00 -4.2374157847878475e+00 -4.6691528695745319e+00 8.1248057680001295e-01 0 0 0
78 78 8 0.0000000000000000e+00 -7.6412168777012166e+00 -4.4148341887405103e+00 5.9166421287813300e+00 0 0 0
79 79 8 0.0000000000000000e+00 -5.4294004183554065e+00 -6.4158798615115193e+00 6.5145667973569203e+00 0 0 0
80 80 8 0.0000000000000000e+00 -5.1859734750115845e+00 -4.4186781425809691e+00 4.3824135268859248e+00 0 0 0
89 89 8 0.0000000000000000e+00 -8.6595264200907991e+00 -2.7091495566659241e+00 1.1176344146037778e+00 0 0 0
90 90 8 0.0000000000000000e+00 -6.8741245761083594e+00 -3.8347518890129084e-01 1.4574376437061911e+00 0 0 0
91 91 8 0.0000000000000000e+00 -4.8470889019689292e+00 -2.2777299182806958e+00 2.2987171701822238e+00 0 0 0
92 92 8 0.0000000000000000e+00 -2.5428287429692134e+00 -2.5267657171396349e+00 6.5167885766683309e-01 0 0 0
93 93 8 0.0000000000000000e+00 -7.4012660471141238e+00 -2.4299378269628082e+00 3.7933642364895679e+00 0 0 0
94 94 8 0.0000000000000000e+00 -7.3070856980724948e+00 -1.6267008276911508e+00 6.3338651506013210e+00 0 0 0
95 95 8 0.0000000000000000e+00 -4.8478521700290464e+00 -1.6834519793299716e+00 5.0193501005169967e+00 0 0 0
96 96 8 0.0000000000000000e+00 -4.4986099048052441e+00 6.9905271689426574e-01 2.7859528969680056e+00 0 0 0
132 129 6 -6.5000000000000002e-01 -1.1963525086471520e+00 -3.7383600131562509e+00 3.2391045411118622e+00 0 0 0
297 301 10 -8.3399999999999996e-01 -2.3832668990367587e+00 -6.3984915726993261e+00 5.3100484301389130e+00 0 0 0
298 301 9 4.1699999999999998e-01 -2.8829826049660099e+00 -5.9103995538634955e+00 4.6562308719049934e+00 0 0 0
299 301 9 4.1699999999999998e-01 -2.4538548751210989e+00 -5.8736046221679761e+00 6.1068782857935489e+00 0 0 0
302 302 9 4.1699999999999998e-01 -2.5598815517144970e+00 -3.6352842213318071e+00 -6.8893327376021709e+00 0 0 1
303 303 10 -8.3399999999999996e-01 -2.0272819576779391e+00 -1.0814873434043886e+00 3.7840390795015644e+00 0 0 0
305 303 9 4.1699999999999998e-01 -1.8610485559669527e+00 -2.0213914765701420e+00 3.7179285175541548e+00 0 0 0
109 109 8 0.0000000000000000e+00 -7.0715255833763795e+00 4.2532143554362101e-01 4.1127224363499639e+00 0 0 0
131 129 6 -6.5000000000000002e-01 -1.3551242804434409e+00 -5.6270478658218259e+00 1.8222503375539336e+00 0 0 0
77 77 8 0.0000000000000000e+00 -6.9124143740295594e+00 -6.8356879204505203e+00 4.2041618124098861e+00 0 0 0
128 128 8 0.0000000000000000e+00 -4.2922390227681468e+00 -6.6794856260479865e+00 2.9637602222241028e+00 0 1 0
304 303 9 4.1699999999999998e-01 -1.9480711579845682e+00 -7.6014985380913025e-01 2.8863245531272845e+00 0 0 0
370 325 9 4.1699999999999998e-01 -3.0265710326509065e-01 -1.3541944845736218e+00 -4.1770274752722703e+00 0 0 0
284 296 9 4.1699999999999998e-01 -7.0600822811999464e-01 1.5015679320264841e+00 4.8813372603733285e+00 0 0 -1
319 308 9 4.1699999999999998e-01 -2.0547604569025140e+00 3.2676328253752676e+00 3.3659591351993008e+00 0 0 0
123 123 8 0.0000000000000000e+00 -6.1448171201538671e+00 5.1201181618839424e+00 2.4735645845615686e+00 0 0 0
674 427 9 4.1699999999999998e-01 -1.7752625752680892e+01 5.3771787886500011e-01 5.0033743719046075e+00 1 0 0
685 431 10 -8.3399999999999996e-01 -1.7707124677308126e+01 -1.2612571221929016e+00 -5.1092226171122732e+00 1 0 0
271 292 9 4.1699999999999998e-01 -1.6763299388872078e+01 4.8149765430238105e+00 4.6601519495972479e+00 0 0 0
265 290 9 4.1699999999999998e-01 -1.5765221239925534e+01 6.1727946855287179e+00 -1.1749589540395631e+00 0 0 0
390 332 10 -8.3399999999999996e-01 -1.2181928471480674e-01 -6.4815922880933039e+00 -5.3600874434385126e+00 0 0 0
122 122 8 0.0000000000000000e+00 -8.4142559624197180e+00 -7.0142353508349995e+00 1.7266561219803283e+00 0 1 0
127 127 8 0.0000000000000000e+00 -4.6314574824328893e+00 5.2747582501829182e+00 4.8997452625159248e+00 0 0 0
49 49 8 0.0000000000000000e+00 -1.3702157580268167e+01 4.6148903588370587e+00 6.9107279741245033e+00 0 0 -1
229 278 9 4.1699999999999998e-01 -1.5857735558305071e+01 2.1600286450307316e-01 4.8678835407423016e-02 0 0 0
228 278 10 -8.3399999999999996e-01 -1.5933777703752304e+01 4.7186707011245499e-01 9.6746838466446228e-01 0 0 0
230 278 9 4.1699999999999998e-01 -1.5969612404521641e+01 -3.5646269679276799e-01 1.4449716471051914e+00 0 0 0
675 427 9 4.1699999999999998e-01 -1.6892329185483540e+01 1.4140426872617660e+00 4.1191694566936068e+00 1 0 0
673 427 10 -8.3399999999999996e-01 -1.6842015637418385e+01 7.7286861916516969e-01 4.8275414806403187e+00 1 0 0
42 42 8 0.0000000000000000e+00 -1.3716844087894103e+01 3.2208129366985023e+00 1.2778711733040833e+00 0 0 0
43 43 8 0.0000000000000000e+00 -1.1614925521973397e+01 1.3355561205925923e+00 2.0900909652342925e+00 0 0 0
44 44 8 0.0000000000000000e+00 -1.1173892028936619e+01 3.2873682769109358e+00 -4.7922607600184186e-02 0 0 0
45 45 8 0.0000000000000000e+00 -1.4040968407580710e+01 1.1857890064103369e+00 3.4028220853107882e+00 0 0 0
46 46 8 0.0000000000000000e+00 -1.3919675472795262e+01 1.9108918417127398e+00 6.1350636769086382e+00 0 0 0
48 48 8 0.0000000000000000e+00 -1.1503364778345414e+01 2.0825183647655603e+00 4.7447081525430708e+00 0 0 0