LAMMPS data file via write_data, version 16 Mar 2018, timestep = 50000

714 atoms
12 atom types
403 bonds
8 bond types
260 angles
13 angle types
132 dihedrals
18 dihedral types

-1.8953085497336065e+01 1.8953085497336065e+01 xlo xhi
-7.1074072056279896e+00 7.1074072056279896e+00 ylo yhi
-7.1074072056279896e+00 7.1074072056279896e+00 zlo zhi

Masses

1 1.008
2 1.008
3 12.011
4 12.011
5 15.9994
6 15.9994
7 32.06
8 196.966
9 1.008
10 15.9994
11 35.45
12 22.9898

Pair Coeffs # lj/charmmfsw/coul/long

1 0.028 2.38761 0.028 2.38761
2 0.024 2.38761 0.024 2.38761
3 0.056 3.58141 0.01 3.38542
4 0.078 3.63487 0.01 3.38542
5 0.1 2.93997 0.1 2.93997
6 0.12 3.02906 0.12 3.02906
7 0.47 3.74177 0.47 3.74177
8 5.29 2.62904 5.29 2.62904
9 0.046 0.400014 0.046 0.400014
10 0.1521 3.15057 0.1521 3.15057
11 0.15 4.04468 0.15 4.04468
12 0.0469 2.42993 0.0469 2.42993

Bond Coeffs # harmonic

1 222.5 1.53
2 222.5 1.528
3 309 1.111
4 340 1.43
5 322 1.111
6 450 0.9572
7 540 1.448
8 250 1.575

Angle Coeffs # charmm

1 58.35 113.6 11.16 2.561
2 58 115 8 2.561
3 26.5 110.1 22.53 2.179
4 75.7 110.1 0 0
5 34.6 110.1 22.53 2.179
6 15 109 27 1.9
7 34.6 110.1 22.53 2.179
8 35.5 109 5.4 1.802
9 60 109.5 0 0
10 35.5 108.4 5.4 1.802
11 55 104.52 0 0
12 130 109.47 35 2.45
13 85 98 0 0

Dihedral Coeffs # charmmfsw

1 0.101 2 0 1
2 0.142 3 180 0
3 0.074 4 0 0
4 0.097 5 0 0
5 0.162 2 0 1
6 0.047 3 180 0
7 0.105 4 0 0
8 0.177 5 0 0
9 0.19 3 0 1
10 0 3 0 1
11 0.16 3 0 1
12 0 3 0 1
13 0 3 0 1
14 0.19 3 0 1
15 0.19 3 0 1
16 0.19 3 0 1
17 0.16 3 0 1
18 0 3 0 1

Atoms # full

1 1 8 0.0000000000000000e+00 -1.3310301844534830e+01 -5.1848218069981069e+00 -5.0646258425874100e+00 0 0 0
2 2 8 0.0000000000000000e+00 -1.1555485971781632e+01 -4.7868647171988705e+00 -2.7978317502808521e+00 0 0 0
4 4 8 0.0000000000000000e+00 -1.0126264259740378e+01 -5.0877300088222341e+00 -5.0488650161475128e+00 0 0 0
6 6 8 0.0000000000000000e+00 -1.4315186717148727e+01 -4.6256983875736246e+00 -2.0634219403060081e+00 0 0 0
18 18 8 0.0000000000000000e+00 -1.1868745224451091e+01 -2.8170083680950118e+00 -4.8738691557831340e+00 0 0 0
21 21 8 0.0000000000000000e+00 -1.4927628322545178e+01 -2.8680978325695481e+00 -4.2323267723418336e+00 0 0 0
23 23 8 0.0000000000000000e+00 -1.2761379130166130e+01 -2.2033707003751859e+00 -2.2568398340288827e+00 0 0 0
24 24 8 0.0000000000000000e+00 -1.0599370023397357e+01 -7.7624597254166883e-01 -3.5345868861503735e+00 0 0 0
37 37 8 0.0000000000000000e+00 -1.3440312974360724e+01 -4.9255363960245635e-01 -4.6271585764928771e+00 0 0 0
86 86 8 0.0000000000000000e+00 -1.0394466881121840e+01 -2.0905598896927833e+00 -9.3841728307535899e-01 0 0 0
219 275 10 -8.3399999999999996e-01 -1.7540527155686824e+01 -3.0996732681761010e+00 -2.1187226581031089e+00 0 0 0
22 22 8 0.0000000000000000e+00 -1.4839523363772738e+01 -8.5977008510157660e-02 -2.1828955405859380e+00 0 0 0
174 260 10 -8.3399999999999996e-01 -1.6323138542816526e+01 -5.9183693175440366e+00 -3.6439052734899566e+00 0 0 0
7 7 8 0.0000000000000000e+00 -1.1434718215282194e+01 -6.8934563352590583e+00 -6.1711714753352620e-01 0 0 0
447 351 10 -8.3399999999999996e-01 -1.6217762604710007e+01 -4.8426203578660303e+00 -6.4375491319350919e+00 1 0 0
17 17 8 0.0000000000000000e+00 -1.3953411592191408e+01 -2.6057781184970326e+00 -6.9407613881962371e+00 0 0 0
176 260 9 4.1699999999999998e-01 -1.5824416859593219e+01 -5.2143357773537717e+00 -4.0589812531312273e+00 0 0 0
220 275 9 4.1699999999999998e-01 -1.8216404881208341e+01 -3.5184741677697700e+00 -2.6520767891389188e+00 0 0 0
579 395 9 4.1699999999999998e-01 -1.6565254805188232e+01 -3.0475030639627407e+00 -6.5115748019666277e+00 1 1 -1
28 28 8 0.0000000000000000e+00 -1.2430043310512222e+01 -1.8817237721933999e-01 -3.1342673595895132e-01 0 0 0
577 395 10 -8.3399999999999996e-01 -1.7231731646418339e+01 -2.4210607132980213e+00 -6.2286331429818382e+00 1 1 -1
221 275 9 4.1699999999999998e-01 -1.7297141529727753e+01 -2.3158432889723137e+00 -2.6117199644737958e+00 0 0 0
8 8 8 0.0000000000000000e+00 -9.6046412089544404e+00 -4.8404612377909739e+00 -8.5811297247666563e-01 0 0 0
175 260 9 4.1699999999999998e-01 -1.6876374497826504e+01 -6.2656209820910798e+00 -4.3439210606443508e+00 0 0 0
191 265 9 4.1699999999999998e-01 -1.6412630227408592e+01 -6.8469540614048583e+00 -2.1007018662213657e+00 0 0 0
449 351 9 4.1699999999999998e-01 -1.6862419277577843e+01 -5.1876574085191951e+00 -5.8194547857131589e+00 1 0 0
267 291 10 -8.3399999999999996e-01 -1.7273475794311885e+01 -5.7261290564152922e-01 -4.3760415217885571e+00 0 0 0
268 291 9 4.1699999999999998e-01 -1.7116319292328253e+01 -1.2833694159971127e+00 -4.9979722974904153e+00 0 0 0
622 410 10 -8.3399999999999996e-01 -1.7078724755167318e+01 -4.2158595722440886e+00 2.7620496723907895e-01 1 0 -1
269 291 9 4.1699999999999998e-01 -1.6615039215405471e+01 8.7309067010419739e-02 -4.5942979527548413e+00 0 0 0
578 395 9 4.1699999999999998e-01 -1.8064201073717406e+01 -2.8474146264198232e+00 -6.4332996876741460e+00 1 1 -1
624 410 9 4.1699999999999998e-01 -1.7051820368970841e+01 -3.8376625575417549e+00 -6.0295529450525720e-01 1 0 -1
623 410 9 4.1699999999999998e-01 -1.8001307436114111e+01 -4.4292101503829198e+00 4.1760867443231220e-01 1 0 -1
343 316 9 4.1699999999999998e-01 -5.1707873419140071e-03 3.1181424352736737e+00 -1.4816671900829270e+00 0 0 0
408 338 10 -8.3399999999999996e-01 -2.4993617668223536e+00 5.4200583420688027e+00 3.6556067125553735e+00 0 0 -1
325 310 9 4.1699999999999998e-01 -1.9670936524512435e+00 3.4802684157918939e+00 -6.7582625687299371e+00 0 0 0
692 433 9 4.1699999999999998e-01 -1.8027503841261566e+01 -1.4166081570300948e+00 1.4141151518365280e-01 1 0 0
106 106 8 0.0000000000000000e+00 -8.6652786521861156e+00 1.0156916726956453e+00 3.9469528460684113e+00 0 0 0
371 325 9 4.1699999999999998e-01 -3.4396234635275391e-01 6.5983286712203704e+00 -2.1558748252027957e+00 0 -1 0
20 20 8 0.0000000000000000e+00 -9.2894054513517652e+00 -2.3105588441168452e+00 -5.6559095188092101e+00 0 0 0
19 19 8 0.0000000000000000e+00 -8.9359927693309835e+00 -3.3375302850257511e+00 -3.0368317857785696e+00 0 0 0
66 66 8 0.0000000000000000e+00 -8.1827061086253146e+00 -6.1047921701156040e+00 -2.9410969878891535e+00 0 0 0
67 67 8 0.0000000000000000e+00 -5.4237576201360600e+00 -6.2624761919357992e+00 -3.8061516807091267e+00 0 0 0
70 70 8 0.0000000000000000e+00 -7.1195179378060285e+00 -5.8651510496338499e+00 -3.8689996036019547e-01 0 0 0
72 72 8 0.0000000000000000e+00 -4.4140548669651576e+00 -6.2092732734930527e+00 -1.0078264760311413e+00 0 0 0
81 81 8 0.0000000000000000e+00 -6.7073052513859110e+00 -1.9718049806051523e+00 -4.2848293282153644e+00 0 0 0
83 83 8 0.0000000000000000e+00 -4.5789843843714326e+00 -3.8260893911332685e+00 -4.7455986547547688e+00 0 0 0
84 84 8 0.0000000000000000e+00 -4.1897438248706464e+00 -1.3178447920425267e+00 -5.8203416016929426e+00 0 0 0
85 85 8 0.0000000000000000e+00 -6.0466662115599696e+00 -3.8855139036395645e+00 -2.3001955757725243e+00 0 0 0
88 88 8 0.0000000000000000e+00 -4.3396985436544355e+00 -1.6221562072503035e+00 -2.8208085131605323e+00 0 0 0
312 306 10 -8.3399999999999996e-01 -2.7143027849636816e+00 -4.0657689772397063e+00 -2.4321486448377794e+00 0 0 0
314 306 9 4.1699999999999998e-01 -2.7760071962862547e+00 -3.8272041569357356e+00 -1.5069719730640410e+00 0 0 0
101 101 8 0.0000000000000000e+00 -7.7762894129967144e+00 -9.4998787686538222e-01 -1.9682001340271045e+00 0 0 0
313 306 9 4.1699999999999998e-01 -2.5524217325164003e+00 -3.2370440872716775e+00 -2.8834605672381146e+00 0 0 0
65 65 8 0.0000000000000000e+00 -7.4141006972095749e+00 -4.7290973306454447e+00 -5.2291432155495965e+00 0 0 0
133 129 6 -6.5000000000000002e-01 -2.3618669293609109e+00 -2.5040609442947330e+00 -3.0873627851191721e-01 0 0 0
130 129 5 -2.8000000000000003e-01 -3.9148991856400528e-01 -1.1836306109611456e+00 -6.5743124385326812e-01 0 0 0
387 331 10 -8.3399999999999996e-01 -1.4881360017228040e+00 -2.0798298433766593e+00 -4.0916909825561998e+00 0 1 0
380 328 9 4.1699999999999998e-01 -2.1056760449537180e+00 -6.0454825936720873e+00 -4.4357377513164167e+00 0 1 1
87 87 8 0.0000000000000000e+00 -5.3485913827028302e+00 -1.5664403736013019e+00 -9.0992369252805183e-02 0 0 0
129 129 7 1.3300000000000001e+00 -1.7984374424062821e+00 -1.1589835440659222e+00 -1.3356870568870693e-01 0 0 0
131 129 6 -6.5000000000000002e-01 -2.5015339606018898e+00 -1.8879294297875138e-01 -9.3304347348227079e-01 0 0 0
90 90 8 0.0000000000000000e+00 -7.6886288096772546e+00 -3.0493577004727248e+00 -1.0506207785343946e-01 0 0 0
365 323 9 4.1699999999999998e-01 -2.3461087276624646e+00 -5.6425394698413562e+00 -6.4293381193838774e+00 0 0 0
378 328 10 -8.3399999999999996e-01 -2.4682198498971601e+00 -6.4917376520688652e+00 -3.6701718516250383e+00 0 1 1
389 331 9 4.1699999999999998e-01 -1.6236671460820808e+00 -2.1124832610462914e+00 -5.0389165771950406e+00 0 1 0
379 328 9 4.1699999999999998e-01 -2.7397178766215013e+00 -5.7836176111464104e+00 -3.0857685187417481e+00 0 1 1
363 323 10 -8.3399999999999996e-01 -1.6175834477211808e+00 -5.1402867898966695e+00 -6.0637350056637622e+00 0 0 0
388 331 9 4.1699999999999998e-01 -1.9140072206009400e+00 -1.2678164152264735e+00 -3.8161181133909166e+00 0 1 0
673 427 10 -8.3399999999999996e-01 -1.8385912955046898e+01 5.8460546497051578e+00 -3.6806402524079593e+00 1 -1 0
79 79 8 0.0000000000000000e+00 -6.4009080246526135e+00 -6.7546171329950813e+00 -7.0528436456694070e+00 0 0 1
441 349 10 -8.3399999999999996e-01 -1.3904794413817143e+00 -6.2647925054388693e+00 3.3342203217927580e-01 0 1 1
443 349 9 4.1699999999999998e-01 -1.5228540008524547e+00 7.0136785586514510e+00 4.8311855505765422e-01 0 0 1
364 323 9 4.1699999999999998e-01 -1.7288221828727082e+00 -4.2598168336513247e+00 -6.4230037956356689e+00 0 0 0
352 319 9 4.1699999999999998e-01 -2.1411754069989186e+00 -1.8964057264514569e+00 -6.9846523237042675e+00 0 1 1
257 287 9 4.1699999999999998e-01 -1.8445609444710499e+01 2.1428815341271772e+00 5.1448931157942841e+00 0 0 -1
94 94 8 0.0000000000000000e+00 -6.7844750821895694e+00 -2.7777760465765322e+00 7.1036328663316581e+00 0 0 0
351 319 10 -8.3399999999999996e-01 -2.0102135465784876e+00 -2.7948301330825345e+00 6.9262601774841688e+00 0 1 0
181 262 9 4.1699999999999998e-01 -1.6540321878276647e+01 1.6466212532009727e-01 -1.9015486290814199e-01 0 0 0
189 265 10 -8.3399999999999996e-01 -1.6733904711255764e+01 -6.9751206116301603e+00 -1.2079376832050306e+00 0 0 0
434 346 9 4.1699999999999998e-01 -1.6629078285108108e+00 2.2677726996658247e+00 9.1813140690494244e-01 0 1 0
467 357 9 4.1699999999999998e-01 -7.3203294357765358e-01 1.3956879852599133e+00 5.4607543534707208e+00 0 0 0
190 265 9 4.1699999999999998e-01 -1.7185179509691871e+01 -6.1578532638467713e+00 -9.9557678115109649e-01 0 0 0
277 294 9 4.1699999999999998e-01 -1.6754113904607340e+01 5.4233563768595214e+00 -4.6952764360619508e+00 0 0 1
52 52 8 0.0000000000000000e+00 -1.1514094784910757e+01 -7.0649109574803539e+00 -6.2017340583275251e+00 0 1 0
5 5 8 0.0000000000000000e+00 -1.3401652019271689e+01 6.9752233372035928e+00 -2.5108177685756221e+00 0 -1 0
276 294 10 -8.3399999999999996e-01 -1.5949917986505691e+01 5.7398411335580626e+00 -5.1073188434283576e+00 0 0 1
3 3 8 0.0000000000000000e+00 -1.0684464514030514e+01 6.7349698903230273e+00 -3.4614624402943202e+00 0 -1 0
278 294 9 4.1699999999999998e-01 -1.5551912434874303e+01 6.3107425247530688e+00 -4.4497924094349255e+00 0 0 1
712 440 10 -8.3399999999999996e-01 -1.6788802973045748e+01 2.2044992270662611e+00 -2.9150813823584434e+00 1 0 1
713 440 9 4.1699999999999998e-01 -1.6799647678194347e+01 1.3898136109600010e+00 -2.4122464171537992e+00 1 0 1
35 35 8 0.0000000000000000e+00 -1.0903114838431206e+01 7.3899926833557927e-01 -6.0906085700408914e+00 0 0 0
34 34 8 0.0000000000000000e+00 -1.2784061067323357e+01 2.5085024580183006e+00 -5.0803889523701997e+00 0 0 0
38 38 8 0.0000000000000000e+00 -1.2368292963761952e+01 1.4512406131421827e+00 -2.5155038673490058e+00 0 0 0
39 39 8 0.0000000000000000e+00 -9.9272485656534162e+00 7.2670038629082967e-01 -1.2928302217310996e+00 0 0 0
40 40 8 0.0000000000000000e+00 -9.9886959483905748e+00 2.2245995562575001e+00 -3.8988578710603261e+00 0 0 0
50 50 8 0.0000000000000000e+00 -1.3032938293447511e+01 5.3696180058932246e+00 -4.8882268244318432e+00 0 0 0
51 51 8 0.0000000000000000e+00 -1.0430111783871691e+01 4.3130352431229717e+00 -5.5300473771867580e+00 0 0 0
53 53 8 0.0000000000000000e+00 -1.4138551696999194e+01 3.7880679216276096e+00 -2.8237862976322088e+00 0 0 0
54 54 8 0.0000000000000000e+00 -1.3360943873654431e+01 5.1311787089561296e+00 -3.4513571650241470e-01 0 0 0
56 56 8 0.0000000000000000e+00 -1.1391460232203357e+01 4.3161357195881802e+00 -2.5318459778883602e+00 0 0 0
57 57 8 0.0000000000000000e+00 -1.4331407954558262e+01 2.1842309242472240e+00 -4.7576007045524360e-01 0 0 0
714 440 9 4.1699999999999998e-01 -1.6595437371111736e+01 2.8833103134760822e+00 -2.2681650337638830e+00 1 0 1
247 284 9 4.1699999999999998e-01 -1.5966146338252015e+01 2.0359255058421724e+00 -4.5601047218574582e+00 0 0 0
246 284 10 -8.3399999999999996e-01 -1.5643857981926200e+01 1.7051046101210545e+00 -5.3987723757799895e+00 0 0 0
248 284 9 4.1699999999999998e-01 -1.5196731554963781e+01 2.4527897384459401e+00 -5.7959156146477815e+00 0 0 0
666 424 9 4.1699999999999998e-01 -1.6572333925262399e+01 5.3694889700600452e+00 -1.0802040407696669e+00 1 0 0
664 424 10 -8.3399999999999996e-01 -1.6477427073636019e+01 4.4178671224739379e+00 -1.1258443532054700e+00 1 0 0
44 44 8 0.0000000000000000e+00 -1.1651094677786784e+01 2.6722330849544953e+00 -7.3455227763909114e-02 0 0 0
206 270 9 4.1699999999999998e-01 -1.6942388367442526e+01 5.9792157703114093e+00 -6.7920113876507893e+00 0 -1 1
245 283 9 4.1699999999999998e-01 -1.5015985434534795e+01 4.4976321635004268e+00 -6.2161961750384176e+00 0 0 0
658 422 10 -8.3399999999999996e-01 -1.8107520978192337e+01 -6.4073879939371938e+00 -5.5314229930153473e+00 1 1 0
180 262 10 -8.3399999999999996e-01 -1.6911853325172359e+01 1.0121675066147642e+00 -4.3585786020147221e-01 0 0 0
182 262 9 4.1699999999999998e-01 -1.6545556659819276e+01 1.6280193930083531e+00 1.9914161575195788e-01 0 0 0
665 424 9 4.1699999999999998e-01 -1.6422431409397568e+01 4.1380085090045124e+00 -2.1188029709402301e-01 1 0 0
243 283 10 -8.3399999999999996e-01 -1.4670331120617458e+01 3.8735268783489616e+00 -6.8547000679746439e+00 0 0 0
244 283 9 4.1699999999999998e-01 -1.4355276651470149e+01 4.4181112695690761e+00 6.6384220275687742e+00 0 0 -1
383 329 9 4.1699999999999998e-01 -1.8014673236664986e+01 6.8949361251999175e-01 -6.0887795899137531e+00 1 -1 -1
465 357 10 -8.3399999999999996e-01 -4.4386639363249714e-02 7.8449166884441457e-01 5.7258142280735314e+00 0 0 0
677 428 9 4.1699999999999998e-01 -1.8716223577292759e+01 -1.4340353149282148e+00 2.0213553746677171e+00 1 0 0
125 125 8 0.0000000000000000e+00 -8.4532654962255052e+00 3.9766957976483663e+00 4.1274438072990680e+00 0 0 0
398 334 9 4.1699999999999998e-01 -2.2645992870429303e+00 1.4097717714779474e+00 -3.6166874921448691e+00 0 0 0
487 364 9 4.1699999999999998e-01 -9.0779592769599660e-01 1.6117900186522860e-01 -6.7447360860719767e+00 0 0 0
486 364 10 -8.3399999999999996e-01 -1.5183700015192798e+00 -4.1850693759440727e-01 -6.2888388053526976e+00 0 0 0
193 266 9 4.1699999999999998e-01 -1.8549774482020524e+01 2.5268172120831611e+00 -1.2082037563242141e+00 0 -1 0
396 334 10 -8.3399999999999996e-01 -2.4882977501703287e+00 4.7985464088398988e-01 -3.6601289333846925e+00 0 0 0
397 334 9 4.1699999999999998e-01 -2.7221597096804828e+00 2.4697951474332136e-01 -2.7613799124918037e+00 0 0 0
418 341 9 4.1699999999999998e-01 -2.4267669691133058e+00 1.6399649265142688e+00 -1.0309217181936194e+00 0 0 0
360 322 10 -8.3399999999999996e-01 -3.0114385314522423e+00 5.3797211528714595e+00 -4.8782298278518024e+00 0 -1 0
362 322 9 4.1699999999999998e-01 -3.1735286069287802e+00 5.7576339121001112e+00 -5.7428579506155737e+00 0 -1 0
82 82 8 0.0000000000000000e+00 -8.3666180060894604e+00 2.3255923289784963e-01 -4.9552560278488045e+00 0 0 0
373 326 9 4.1699999999999998e-01 -1.6228620279155308e+00 3.6945979438938039e+00 -3.0634523746566842e+00 0 -1 1
361 322 9 4.1699999999999998e-01 -3.2380655417425057e+00 6.0786913967779945e+00 -4.2644285023824828e+00 0 -1 0
55 55 8 0.0000000000000000e+00 -9.1156385294641478e+00 3.4289538761865277e+00 -8.5780109666354143e-01 0 0 0
69 69 8 0.0000000000000000e+00 -8.9828369053908457e+00 6.2123770278714971e+00 -9.7177382230873288e-01 0 -1 0
98 98 8 0.0000000000000000e+00 -7.5837395077049461e+00 1.8972716272436934e+00 -2.6241166509750320e+00 0 0 0
99 99 8 0.0000000000000000e+00 -5.6250058480221785e+00 7.0080761822234017e-01 -4.3508461651054944e+00 0 0 0
100 100 8 0.0000000000000000e+00 -4.8972275490136479e+00 2.8468273802979347e+00 -6.1408856525018392e+00 0 0 0
104 104 8 0.0000000000000000e+00 -5.1347315524774100e+00 9.4395440724810165e-01 -1.5633104875211723e+00 0 0 0
113 113 8 0.0000000000000000e+00 -7.6278779516248765e+00 2.8497305684349392e+00 -5.4238863462601419e+00 0 0 0
114 114 8 0.0000000000000000e+00 -8.6034112706092678e+00 6.5717277506957554e+00 -5.3965071085932825e+00 0 0 0
115 115 8 0.0000000000000000e+00 -5.3250029408319044e+00 3.4000055853578033e+00 -3.3169980184560139e+00 0 0 0
116 116 8 0.0000000000000000e+00 -6.1296605543700036e+00 5.3363132923685601e+00 -4.9906793818749131e+00 0 0 0
117 117 8 0.0000000000000000e+00 -8.5426874439951277e+00 4.6243211385708776e+00 -3.3891450133145065e+00 0 0 0
118 118 8 0.0000000000000000e+00 -6.2849624152551264e+00 3.4555792445916858e+00 -5.4813045919017345e-01 0 0 0
119 119 8 0.0000000000000000e+00 -3.8120580802650696e+00 5.1082929231906018e+00 -1.4483067909014116e+00 0 0 0
120 120 8 0.0000000000000000e+00 -6.4809414592687773e+00 5.8763131121172236e+00 -2.1668763696612725e+00 0 0 0
374 326 9 4.1699999999999998e-01 -2.5926940044018245e+00 3.8801331275679178e+00 -4.2114924479542397e+00 0 -1 1
372 326 10 -8.3399999999999996e-01 -2.1451851474772390e+00 3.2058732630029407e+00 -3.6998469978599879e+00 0 -1 1
417 341 10 -8.3399999999999996e-01 -2.3889957375611885e+00 2.5539212399470568e+00 -7.4819752119187211e-01 0 0 0
419 341 9 4.1699999999999998e-01 -3.0612695986620810e+00 2.9941710627798184e+00 -1.2686809808899699e+00 0 0 0
370 325 9 4.1699999999999998e-01 -1.5526471438378664e+00 6.2695123858822939e+00 -3.0067311041102345e+00 0 -1 0
369 325 10 -8.3399999999999996e-01 -8.1360541405203080e-01 5.8643148183748135e+00 -2.5525240445978419e+00 0 -1 0
488 364 9 4.1699999999999998e-01 -1.7439877576844047e+00 5.3361787630705315e-02 -5.4868984256358155e+00 0 0 0
283 296 9 4.1699999999999998e-01 -1.4131986188020562e-01 5.6568310883888753e+00 6.9056771619619024e+00 0 -1 -2
97 97 8 0.0000000000000000e+00 -6.3238210763300042e+00 5.6607146411294273e-02 7.1065714073574080e+00 0 0 -1
660 422 9 4.1699999999999998e-01 -1.8332157342166944e+01 6.9889722679637867e+00 -5.0883127376006376e+00 1 0 0
36 36 8 0.0000000000000000e+00 -9.3352525808845481e+00 2.4233920395016568e+00 6.3984212849778768e+00 0 0 -1
326 310 9 4.1699999999999998e-01 -2.6311117880484325e+00 2.3157455278895398e+00 -6.0540173127912356e+00 0 0 0
448 351 9 4.1699999999999998e-01 -1.6374794631230539e+01 -5.3311324020371345e+00 6.9689505985500109e+00 1 0 -1
647 418 9 4.1699999999999998e-01 -1.6744437713782485e+01 -4.7552217414817157e+00 2.0315267922084796e+00 1 0 0
123 123 8 0.0000000000000000e+00 -5.8605145590186325e+00 5.0117659889025532e+00 3.4685198772993893e+00 0 0 0
25 25 8 0.0000000000000000e+00 -1.4506899084027300e+01 -2.3322109865046752e+00 6.7459690451125986e-02 0 0 0
648 418 9 4.1699999999999998e-01 -1.6459010970039714e+01 -3.8318356373200668e+00 3.1972386838804638e+00 1 0 0
12 12 8 0.0000000000000000e+00 -1.2196237441238637e+01 -4.0931510898165175e+00 -2.0597721085202636e-05 0 0 0
265 290 9 4.1699999999999998e-01 -1.7605403278593876e+01 -5.3028068092520479e+00 4.4783110702143460e+00 0 1 0
14 14 8 0.0000000000000000e+00 -1.1788291388520884e+01 -4.4688055084249942e+00 6.9525759449693147e+00 0 0 0
266 290 9 4.1699999999999998e-01 -1.7769539021633769e+01 -6.5314700658338989e+00 5.3480483120576761e+00 0 1 0
646 418 10 -8.3399999999999996e-01 -1.6708936316033768e+01 -4.7320775760991687e+00 2.9880183300358816e+00 1 0 0
691 433 10 -8.3399999999999996e-01 -1.7328348568045900e+01 -1.4830257763518526e+00 7.9213531420397310e-01 1 0 0
184 263 9 4.1699999999999998e-01 -1.5323749770108648e+01 -1.5911411076742041e+00 3.6585322630051316e+00 0 0 0
9 9 8 0.0000000000000000e+00 -1.4083760763074409e+01 -6.2115153660837761e+00 4.8334285373635577e-01 0 0 0
10 10 8 0.0000000000000000e+00 -1.3844465895877912e+01 -4.1376828425045584e+00 2.3017781870688783e+00 0 0 0
11 11 8 0.0000000000000000e+00 -1.1663381182193811e+01 -5.7979185045072663e+00 2.1261579544935110e+00 0 0 0
13 13 8 0.0000000000000000e+00 -1.1839839082314771e+01 -6.4339891294129483e+00 4.9441474517351818e+00 0 0 0
16 16 8 0.0000000000000000e+00 -1.1694073327605370e+01 -3.6999020478139859e+00 4.0768883273454026e+00 0 0 0
26 26 8 0.0000000000000000e+00 -1.2263183297084222e+01 -1.8515662818021710e+00 1.8490764926362893e+00 0 0 0
27 27 8 0.0000000000000000e+00 -9.8973047777875269e+00 -3.4426510944856283e+00 1.6081834766307708e+00 0 0 0
29 29 8 0.0000000000000000e+00 -1.4237306724729187e+01 -4.3772028255229181e+00 5.1279772273264257e+00 0 0 0
30 30 8 0.0000000000000000e+00 -1.1502825379271233e+01 -1.7361844347495659e+00 6.6161661803580234e+00 0 0 0
32 32 8 0.0000000000000000e+00 -1.0030978740205690e+01 -1.4503688907625820e+00 3.9402876824234951e+00 0 0 0
45 45 8 0.0000000000000000e+00 -1.3310940536370495e+01 -1.3209470544232831e+00 4.3676508529854239e+00 0 0 0
105 105 8 0.0000000000000000e+00 -9.8300509004579641e+00 -4.1239726095013118e-01 1.3285128778972730e+00 0 0 0
183 263 10 -8.3399999999999996e-01 -1.6028540175411589e+01 -2.1499033370291265e+00 3.3303054704942614e+00 0 0 0
185 263 9 4.1699999999999998e-01 -1.6831775663311074e+01 -1.7261930783144530e+00 3.6335451270168857e+00 0 0 0
413 339 9 4.1699999999999998e-01 -9.0210449912945023e-02 -3.0287036482750676e+00 -3.0049249292395332e+00 0 1 -1
693 433 9 4.1699999999999998e-01 -1.6977231090213714e+01 -2.3663939306498696e+00 6.7790706830143410e-01 1 0 0
565 390 9 4.1699999999999998e-01 -1.5626633197761846e+01 -6.1146091357410954e+00 3.6578618604829511e+00 1 1 0
264 290 10 -8.3399999999999996e-01 -1.7964943559347294e+01 -5.5947309008157555e+00 5.3162745652813630e+00 0 1 0
710 439 9 4.1699999999999998e-01 -1.7384878390909009e+01 -7.4836894316576430e-01 6.0744558557703225e+00 1 0 0
709 439 10 -8.3399999999999996e-01 -1.6780252979958195e+01 -3.3491354730025069e-01 5.4578894358806114e+00 1 0 0
282 296 10 -8.3399999999999996e-01 -7.5683251639542704e-01 5.6317783149056933e+00 6.1727462675064668e+00 0 -1 -2
350 318 9 4.1699999999999998e-01 -2.1594784012181059e+00 4.8898742872959531e+00 4.8359485370905020e-01 0 0 0
636 414 9 4.1699999999999998e-01 -1.7958617175606502e+01 6.5797592183259574e+00 1.9591708956400300e+00 1 0 0
96 96 8 0.0000000000000000e+00 -2.8497593900366951e+00 4.1013177363344688e-01 3.5145848516156821e+00 0 0 0
359 321 9 4.1699999999999998e-01 -3.0698112831094857e+00 -6.8411599871082780e+00 5.9399607424721808e+00 0 1 0
391 332 9 4.1699999999999998e-01 -1.9822700673141647e+00 -4.9693306287349639e+00 1.5257629840669207e+00 0 1 0
74 74 8 0.0000000000000000e+00 -9.3852321335615407e+00 -5.3015773102365875e+00 3.7810532012438163e+00 0 0 0
15 15 8 0.0000000000000000e+00 -9.2890057608263774e+00 -6.1676666953381920e+00 6.5162768334189796e+00 0 0 0
390 332 10 -8.3399999999999996e-01 -2.0919797479680646e+00 -4.0560814627971045e+00 1.7914940556877923e+00 0 1 0
392 332 9 4.1699999999999998e-01 -2.3420328439043558e+00 -3.6004915374204955e+00 9.8738708410483689e-01 0 1 0
353 319 9 4.1699999999999998e-01 -1.7279270089466969e+00 -2.7016373359613874e+00 6.0161501148072070e+00 0 1 0
304 303 9 4.1699999999999998e-01 -2.4522533960304962e+00 -1.8773226293788818e+00 4.3328338545299339e+00 0 0 0
303 303 10 -8.3399999999999996e-01 -1.9822113080745076e+00 -2.7035840733375851e+00 4.2186809503846447e+00 0 0 0
68 68 8 0.0000000000000000e+00 -4.7207855727651822e+00 -4.5554075023946048e+00 6.7141950543990401e+00 0 0 -1
31 31 8 0.0000000000000000e+00 -9.3749131593181705e+00 -3.3973752553629430e+00 5.9287235554325122e+00 0 0 0
76 76 8 0.0000000000000000e+00 -5.0714734448187215e+00 -4.3066893138377811e+00 9.1092861879246101e-01 0 0 0
73 73 8 0.0000000000000000e+00 -9.1549993182475653e+00 -6.6040829959292706e+00 1.3498978810561066e+00 0 0 0
75 75 8 0.0000000000000000e+00 -6.6429585864469960e+00 -6.5139324925051012e+00 2.4606797007414105e+00 0 0 0
78 78 8 0.0000000000000000e+00 -7.0038548977818493e+00 -4.9165454126351094e+00 5.2261606435695303e+00 0 0 0
80 80 8 0.0000000000000000e+00 -4.7309513957102087e+00 -4.2120562789919553e+00 3.7610383991235921e+00 0 0 0
89 89 8 0.0000000000000000e+00 -7.4052140803052069e+00 -3.8399550081352558e+00 2.6964208878160214e+00 0 0 0
91 91 8 0.0000000000000000e+00 -4.4070429588520863e+00 -1.7125485012400690e+00 2.4918719137083425e+00 0 0 0
93 93 8 0.0000000000000000e+00 -7.2760036376197732e+00 -1.8527584315749781e+00 4.6727548174827316e+00 0 0 0
95 95 8 0.0000000000000000e+00 -4.4707853015911052e+00 -1.7751298866706087e+00 5.5372675918759295e+00 0 0 0
132 129 6 -6.5000000000000002e-01 -1.5943758944544157e+00 -7.6288488933724796e-01 1.2193404837756674e+00 0 0 0
47 47 8 0.0000000000000000e+00 -8.9395777759926762e+00 -4.4003907455232572e-01 6.4265367788519345e+00 0 0 0
103 103 8 0.0000000000000000e+00 -7.1095801562265120e+00 -9.2896544512421908e-01 1.8906781603500278e+00 0 0 0
305 303 9 4.1699999999999998e-01 -2.2325960547450627e+00 -3.0034059061256846e+00 3.3445605691789630e+00 0 0 0
124 124 8 0.0000000000000000e+00 -3.6765253340851292e+00 -6.6290139152752969e+00 1.9729461574177591e+00 0 1 0
128 128 8 0.0000000000000000e+00 -4.8890231397736095e+00 -6.7909426386254408e+00 4.7678138588336569e+00 0 1 0
479 361 9 4.1699999999999998e-01 -1.2597812988815562e+00 -5.5636352976852521e+00 4.6913068729448177e+00 0 1 0
477 361 10 -8.3399999999999996e-01 -2.0434719313462502e+00 -5.8497919444409652e+00 4.2216063203620759e+00 0 1 0
478 361 9 4.1699999999999998e-01 -2.2402250470288507e+00 -5.1298127115511178e+00 3.6219481917854406e+00 0 1 0
675 427 9 4.1699999999999998e-01 -1.8161923285192668e+01 6.0339591870358493e+00 -2.7689429337134257e+00 1 -1 0
433 346 9 4.1699999999999998e-01 -1.3492713660959517e+00 1.0216662046019511e+00 1.7192843429771205e+00 0 1 0
493 366 9 4.1699999999999998e-01 -4.3907446964892927e-01 -6.4506071926566655e-01 2.5602517882382010e+00 0 1 0
122 122 8 0.0000000000000000e+00 -7.9806635725036017e+00 4.9058266163212316e+00 1.3401519743884762e+00 0 0 0
284 296 9 4.1699999999999998e-01 -2.0126154235558857e-01 5.6155322390898590e+00 5.3931641656526779e+00 0 -1 -2
349 318 9 4.1699999999999998e-01 -1.6680393634344206e+00 5.1661193626348361e+00 1.8890032989918399e+00 0 0 0
110 110 8 0.0000000000000000e+00 -6.5398647746784047e+00 2.4111818696795648e+00 5.6949280065114944e+00 0 0 0
205 270 9 4.1699999999999998e-01 -1.8051361662870004e+01 5.4174285736150640e+00 6.5581773175891733e+00 0 -1 0
228 278 10 -8.3399999999999996e-01 -1.6733999364063965e+01 2.4410193319813960e+00 5.9460702112537174e+00 0 -1 -1
711 439 9 4.1699999999999998e-01 -1.6791194701805516e+01 5.9232104180705392e-01 5.6961904024653247e+00 1 0 0
455 353 9 4.1699999999999998e-01 -1.7201470221724890e+01 -2.9026683737048664e-01 2.2311670106646897e+00 1 0 0
454 353 9 4.1699999999999998e-01 -1.7317329153991778e+01 2.4444496802489102e-01 3.6431396745152096e+00 1 0 0
229 278 9 4.1699999999999998e-01 -1.6465404548491662e+01 3.1645909913113961e+00 5.3795261916493207e+00 0 -1 -1
62 62 8 0.0000000000000000e+00 -1.4043420408304048e+01 -6.7820879263060396e+00 6.9226148401880589e+00 0 1 0
204 270 10 -8.3399999999999996e-01 -1.7445958468683212e+01 6.1558738500566257e+00 6.6278908802119432e+00 0 -1 0
564 390 10 -8.3399999999999996e-01 -1.5043735887601047e+01 -6.8720587102369013e+00 3.7142138751273031e+00 1 1 0
453 353 10 -8.3399999999999996e-01 -1.7302307821048771e+01 5.2248435497271739e-01 2.7270889639922373e+00 1 0 0
33 33 8 0.0000000000000000e+00 -1.3458835052005629e+01 4.3724712826586920e-01 6.8177657409069727e+00 0 0 -1
173 259 9 4.1699999999999998e-01 -1.5609294170768518e+01 5.4264267671219262e+00 3.4190349851869257e+00 0 -1 -1
172 259 9 4.1699999999999998e-01 -1.6865012545417812e+01 4.6793767812671803e+00 3.8166347765426494e+00 0 -1 -1
566 390 9 4.1699999999999998e-01 -1.4292724700048236e+01 -6.5599516469086421e+00 4.2194292646763891e+00 1 1 0
41 41 8 0.0000000000000000e+00 -1.4404452047748588e+01 -3.8394233422335944e-02 1.9431298216657371e+00 0 0 0
563 389 9 4.1699999999999998e-01 -1.5527222079802414e+01 6.6562070452445905e+00 1.6573188422520904e+00 1 0 0
562 389 9 4.1699999999999998e-01 -1.6365502449551940e+01 6.4756761351426242e+00 4.0924417585448403e-01 1 0 0
561 389 10 -8.3399999999999996e-01 -1.6129378835853071e+01 6.0456978434297142e+00 1.2314588191848248e+00 1 0 0
263 289 9 4.1699999999999998e-01 -1.5929055563907157e+01 3.7653241368596664e+00 1.7293577536843774e+00 0 0 0
262 289 9 4.1699999999999998e-01 -1.6776501916628355e+01 2.6073995248612665e+00 2.2131337328600065e+00 0 0 0
261 289 10 -8.3399999999999996e-01 -1.6341494091259133e+01 2.9534773891804527e+00 1.4336022891483573e+00 0 0 0
49 49 8 0.0000000000000000e+00 -1.2022055231527002e+01 3.1075133242008572e+00 6.4457216979200478e+00 0 0 -1
42 42 8 0.0000000000000000e+00 -1.3436638940709996e+01 3.3348436871880782e+00 2.0476442122830747e+00 0 0 0
43 43 8 0.0000000000000000e+00 -1.1909112819725532e+01 1.1257811183424842e+00 2.2301314992415655e+00 0 0 0
46 46 8 0.0000000000000000e+00 -1.3876910629386291e+01 1.9780840875685559e+00 4.4030908466544236e+00 0 0 0
48 48 8 0.0000000000000000e+00 -1.1253987996618971e+01 8.0523660044389267e-01 5.1175443727054155e+00 0 0 0
58 58 8 0.0000000000000000e+00 -1.2892427555188341e+01 6.0314352538050340e+00 2.3871832618873317e+00 0 0 0