LAMMPS data file via write_data, version 16 Mar 2018, timestep = 846

1144 atoms
12 atom types
583 bonds
8 bond types
350 angles
13 angle types
132 dihedrals
18 dihedral types

-1.2328367000000000e+01 1.2328367000000000e+01 xlo xhi
-1.2328367000000000e+01 1.2328367000000000e+01 ylo yhi
-1.2328367000000000e+01 1.2328367000000000e+01 zlo zhi

Masses

1 1.008
2 1.008
3 12.011
4 12.011
5 15.9994
6 15.9994
7 32.06
8 196.966
9 1.008
10 15.9994
11 35.45
12 22.9898

Pair Coeffs # lj/charmmfsw/coul/long

1 0.028 2.38761 0.028 2.38761
2 0.024 2.38761 0.024 2.38761
3 0.056 3.58141 0.01 3.38542
4 0.078 3.63487 0.01 3.38542
5 0.1 2.93997 0.1 2.93997
6 0.12 3.02906 0.12 3.02906
7 0.47 3.74177 0.47 3.74177
8 5.29 2.62904 5.29 2.62904
9 0.046 0.400014 0.046 0.400014
10 0.1521 3.15057 0.1521 3.15057
11 0.15 4.04468 0.15 4.04468
12 0.0469 2.42993 0.0469 2.42993

Bond Coeffs # harmonic/omp

1 222.5 1.53
2 222.5 1.528
3 309 1.111
4 340 1.43
5 322 1.111
6 450 0.9572
7 540 1.448
8 250 1.575

Angle Coeffs # charmm/omp

1 58.35 113.6 11.16 2.561
2 58 115 8 2.561
3 26.5 110.1 22.53 2.179
4 75.7 110.1 0 0
5 34.6 110.1 22.53 2.179
6 15 109 27 1.9
7 34.6 110.1 22.53 2.179
8 35.5 109 5.4 1.802
9 60 109.5 0 0
10 35.5 108.4 5.4 1.802
11 55 104.52 0 0
12 130 109.47 35 2.45
13 85 98 0 0

Dihedral Coeffs # charmmfsw

1 0.101 2 0 1
2 0.142 3 180 0
3 0.074 4 0 0
4 0.097 5 0 0
5 0.162 2 0 1
6 0.047 3 180 0
7 0.105 4 0 0
8 0.177 5 0 0
9 0.19 3 0 1
10 0 3 0 1
11 0.16 3 0 1
12 0 3 0 1
13 0 3 0 1
14 0.19 3 0 1
15 0.19 3 0 1
16 0.19 3 0 1
17 0.16 3 0 1
18 0 3 0 1

Atoms # full

1 1 8 0.0000000000000000e+00 -8.3545435393685441e+00 -1.0560000122844114e+01 -1.1314845307684900e+01 0 0 0
2 2 8 0.0000000000000000e+00 -8.3569893434082889e+00 -8.5243048158175299e+00 -9.2446241808315044e+00 0 0 0
5 5 8 0.0000000000000000e+00 -8.3489552267116451e+00 -1.0579872167830514e+01 -7.1777354936031363e+00 0 0 0
6 6 8 0.0000000000000000e+00 -8.3392491892898590e+00 -8.5041257929268550e+00 -5.1175364190281458e+00 0 0 0
9 9 8 0.0000000000000000e+00 -8.3585160138622729e+00 -1.0566757305767540e+01 -3.0806363258701062e+00 0 0 0
10 10 8 0.0000000000000000e+00 -8.2864760583393142e+00 -8.4945475456908355e+00 -1.0319586345017979e+00 0 0 0
25 25 8 0.0000000000000000e+00 -8.2826713538128285e+00 -6.4705649412030422e+00 -1.1291705884594462e+01 0 0 0
26 26 8 0.0000000000000000e+00 -8.3517514657749068e+00 -4.4140909311087535e+00 -9.2614014336910770e+00 0 0 0
29 29 8 0.0000000000000000e+00 -8.3519038766051761e+00 -6.4592304140203725e+00 -7.1897700844266090e+00 0 0 0
30 30 8 0.0000000000000000e+00 -8.2944646646958038e+00 -4.4081865594275289e+00 -5.1284551671304053e+00 0 0 0
33 33 8 0.0000000000000000e+00 -8.2833643715414116e+00 -6.4370139385733358e+00 -3.0713318807937440e+00 0 0 0
34 34 8 0.0000000000000000e+00 -8.2754981707553092e+00 -4.3826814428605951e+00 -1.0314661545841617e+00 0 0 0
49 49 8 0.0000000000000000e+00 -8.2937003618724550e+00 -2.3855201852860004e+00 -1.1346783001556547e+01 0 0 0
50 50 8 0.0000000000000000e+00 -8.3247704460391336e+00 -3.4070435378358821e-01 -9.2746437622433682e+00 0 0 0
53 53 8 0.0000000000000000e+00 -8.3424041065956889e+00 -2.3726970114157568e+00 -7.2076045137429459e+00 0 0 0
54 54 8 0.0000000000000000e+00 -8.2984389845048554e+00 -3.1430682929403791e-01 -5.1828924647675798e+00 0 0 0
57 57 8 0.0000000000000000e+00 -8.2925532513036035e+00 -2.3587380643742062e+00 -3.1070372580350902e+00 0 0 0
58 58 8 0.0000000000000000e+00 -8.3132221107302335e+00 -3.2972108715204013e-01 -1.0298321687494008e+00 0 0 0
331 579 10 -8.3399999999999996e-01 -1.0954455853586783e+01 -1.0704054989897930e+01 -8.8512798659443419e+00 0 0 0
332 579 9 4.1699999999999998e-01 -1.0678295564652860e+01 -1.0075071618204063e+01 -8.1566544144400854e+00 0 0 0
339 581 9 4.1699999999999998e-01 -1.1285365878787893e+01 -9.4906187844732148e+00 -5.6305579543798885e+00 0 0 0
1113 840 9 4.1699999999999998e-01 -1.1125711085874299e+01 -1.1855123327204803e+01 -1.7875394877491348e+00 1 1 0
335 580 9 4.1699999999999998e-01 -1.1334410172909218e+01 -7.9610078747147819e+00 -1.1171946014870326e+01 0 0 0
404 603 9 4.1699999999999998e-01 -1.0757389546036206e+01 -1.5858486256312834e+00 -2.3769211528907213e+00 0 0 0
337 581 10 -8.3399999999999996e-01 -1.1600431206360346e+01 -9.9682639321192781e+00 -4.8331790297753132e+00 0 0 0
338 581 9 4.1699999999999998e-01 -1.1205085754665049e+01 -9.4290353589676492e+00 -4.1180664887942351e+00 0 0 0
403 603 10 -8.3399999999999996e-01 -1.0830248408308751e+01 -2.0397116522066456e+00 -1.5061732301707929e+00 0 0 0
340 582 10 -8.3399999999999996e-01 -1.0748448277691521e+01 -8.1848127503115542e+00 -2.9073824746143413e+00 0 0 0
341 582 9 4.1699999999999998e-01 -1.0629356228593130e+01 -7.5492630849067544e+00 -3.6433848088512337e+00 0 0 0
398 601 9 4.1699999999999998e-01 -1.1112739829539876e+01 -1.4273992025270013e+00 -5.1272985469252585e+00 0 0 0
343 583 10 -8.3399999999999996e-01 -1.0794768547731723e+01 -1.0317232892894060e+01 -1.1676645347197292e+00 0 0 0
344 583 9 4.1699999999999998e-01 -1.0700722233186443e+01 -9.6361405531372046e+00 -1.8615304044332917e+00 0 0 0
397 601 10 -8.3399999999999996e-01 -1.1331168780659343e+01 -1.6934690659329930e+00 -6.0433415564692838e+00 0 0 0
364 590 10 -8.3399999999999996e-01 -1.1799005605729482e+01 -4.3314748740763580e+00 -9.2851261188806582e+00 0 0 0
926 778 10 -8.3399999999999996e-01 -1.2307781355935244e+01 -6.8493893610672636e+00 -8.4065537260738932e+00 1 0 0
392 599 9 4.1699999999999998e-01 -1.0932309621840158e+01 -1.0284729076544841e+00 -9.8165356107478665e+00 0 0 0
375 593 9 4.1699999999999998e-01 -1.0747113835038741e+01 -5.5432405200586921e+00 -1.8037243607954620e-01 0 0 0
365 590 9 4.1699999999999998e-01 -1.1365157135133719e+01 -3.5332863816532716e+00 -9.6705007781230563e+00 0 0 0
391 599 10 -8.3399999999999996e-01 -1.0967542007274179e+01 -1.9442944389521919e+00 -1.0157315447984777e+01 0 0 0
367 591 10 -8.3399999999999996e-01 -1.0808708768530435e+01 -6.2816692102882143e+00 -4.8859446582882775e+00 0 0 0
368 591 9 4.1699999999999998e-01 -1.0610386388436458e+01 -5.5788989089283803e+00 -4.2286368343842335e+00 0 0 0
374 593 9 4.1699999999999998e-01 -1.0590944772168569e+01 -5.5870626268148591e+00 -1.6642891457663946e+00 0 0 0
370 592 10 -8.3399999999999996e-01 -1.0825457123178282e+01 -4.3980699412498838e+00 -2.9187016700611150e+00 0 0 0
371 592 9 4.1699999999999998e-01 -1.0615513969634019e+01 -3.5596671700518177e+00 -2.4580715320090278e+00 0 0 0
373 593 10 -8.3399999999999996e-01 -1.0654981870646008e+01 -6.1987211442454626e+00 -9.0259033231198182e-01 0 0 0
342 582 9 4.1699999999999998e-01 -1.0754447470219851e+01 -7.5737247080555390e+00 -2.1434298290711071e+00 0 0 0
1104 837 9 4.1699999999999998e-01 -1.1744308571582751e+01 -1.1569267878885054e+01 -5.5339127775988448e+00 1 1 0
393 599 9 4.1699999999999998e-01 -1.0990438487027525e+01 -1.7652100359913310e+00 -1.1117060621536057e+01 0 0 0
369 591 9 4.1699999999999998e-01 -1.0820337379882560e+01 -5.7025695081435606e+00 -5.6861809572949724e+00 0 0 0
372 592 9 4.1699999999999998e-01 -1.1805737547206805e+01 -4.3719701954385153e+00 -2.8823152297046821e+00 0 0 0
877 761 9 4.1699999999999998e-01 -1.1329221428155600e+01 -7.9838013554718996e+00 -7.5434159690557880e+00 1 0 0
345 583 9 4.1699999999999998e-01 -1.0732232379795670e+01 -9.7648536788915798e+00 -3.6616989679372502e-01 0 0 0
333 579 9 4.1699999999999998e-01 -1.1092099980609611e+01 -1.0086539029486067e+01 -9.5997654024078738e+00 0 0 0
937 781 9 4.1699999999999998e-01 -1.1049606284885639e+01 -4.3212134899320693e+00 -7.6954374473390992e+00 1 0 0
936 781 9 4.1699999999999998e-01 -1.0886615631239756e+01 -3.3885082853230464e+00 -6.5213318293459652e+00 1 0 0
399 601 9 4.1699999999999998e-01 -1.1312275850913194e+01 -8.1114539590542722e-01 -6.4667910951004934e+00 0 0 0
876 761 9 4.1699999999999998e-01 -1.0188412490442520e+01 -7.8739883618518807e+00 -6.5805270957650208e+00 1 0 0
935 781 10 -8.3399999999999996e-01 -1.0822481584417330e+01 -4.3394550849254783e+00 -6.7456005456363739e+00 1 0 0
405 603 9 4.1699999999999998e-01 -1.0708683189192879e+01 -1.2536752285334296e+00 -9.3317448378576706e-01 0 0 0
334 580 10 -8.3399999999999996e-01 -1.1672189315790234e+01 -8.5455769438052886e+00 -1.0461009703164663e+01 0 0 0
336 580 9 4.1699999999999998e-01 -1.1859668447758887e+01 -7.8997676020647036e+00 -9.7464738780484055e+00 0 0 0
875 761 10 -8.3399999999999996e-01 -1.0722692509842044e+01 -8.5518680791917365e+00 -7.0180283515076347e+00 1 0 0
927 778 9 4.1699999999999998e-01 -1.2089836354674985e+01 -5.9438722322503450e+00 -8.7256711148937018e+00 1 0 0
400 602 10 -8.3399999999999996e-01 -1.0763813351568260e+01 -4.5945355685149042e-01 -3.6688588229421191e+00 0 0 0
1033 813 9 4.1699999999999998e-01 -1.2224336979668992e+01 -6.1681408513507807e-01 -1.2260923379239127e+01 1 0 1
362 589 9 4.1699999999999998e-01 -1.0340218882078462e+01 -6.1685300314791789e+00 -1.2295500327456990e+01 0 0 0
13 13 8 0.0000000000000000e+00 -8.3340729436246033e+00 -1.0560228146041569e+01 1.0172994114935285e+00 0 0 0
14 14 8 0.0000000000000000e+00 -8.2831061020123293e+00 -8.5039253630838321e+00 3.0517285399354677e+00 0 0 0
17 17 8 0.0000000000000000e+00 -8.3402704096716604e+00 -1.0543797971179350e+01 5.1180761361833218e+00 0 0 0
18 18 8 0.0000000000000000e+00 -8.2965674710597632e+00 -8.5035128333895322e+00 7.1660403141454285e+00 0 0 0
21 21 8 0.0000000000000000e+00 -8.3223109013293737e+00 -1.0542736642525133e+01 9.2388169647980423e+00 0 0 0
22 22 8 0.0000000000000000e+00 -8.2678787973617247e+00 -8.5007010232082649e+00 1.1303240721467981e+01 0 0 0
37 37 8 0.0000000000000000e+00 -8.2855016130731585e+00 -6.4438126762277932e+00 1.0232689898435552e+00 0 0 0
38 38 8 0.0000000000000000e+00 -8.2923059291780863e+00 -4.4140473423417328e+00 3.0778429830782867e+00 0 0 0
41 41 8 0.0000000000000000e+00 -8.2503172537828320e+00 -6.4682680558139989e+00 5.1081991506047499e+00 0 0 0
42 42 8 0.0000000000000000e+00 -8.2145992300476784e+00 -4.4642816403227439e+00 7.1785656239541931e+00 0 0 0
45 45 8 0.0000000000000000e+00 -8.2927940227896055e+00 -6.4818057642862206e+00 9.2353523470418093e+00 0 0 0
46 46 8 0.0000000000000000e+00 -8.3173625899788455e+00 -4.4465741790424191e+00 1.1283294362070485e+01 0 0 0
61 61 8 0.0000000000000000e+00 -8.2769697857514117e+00 -2.3639700998374642e+00 1.0270188700178122e+00 0 0 0
62 62 8 0.0000000000000000e+00 -8.2784595963831507e+00 -3.6137385946918005e-01 3.1042070047047297e+00 0 0 0
65 65 8 0.0000000000000000e+00 -8.2295344670152257e+00 -2.4087673400551566e+00 5.1486622358303240e+00 0 0 0
66 66 8 0.0000000000000000e+00 -8.2605025699220427e+00 -3.6262118643639607e-01 7.1710547204153041e+00 0 0 0
69 69 8 0.0000000000000000e+00 -8.3044028812263910e+00 -2.4101530153941253e+00 9.2182767316815113e+00 0 0 0
70 70 8 0.0000000000000000e+00 -8.3460901766547924e+00 -3.3941603239911511e-01 1.1258670376600405e+01 0 0 0
346 584 10 -8.3399999999999996e-01 -1.0953281145028509e+01 -1.0155587526890921e+01 2.7310424512008193e+00 0 0 0
347 584 9 4.1699999999999998e-01 -1.0810385842948259e+01 -9.6042011416224451e+00 3.5233071836283063e+00 0 0 0
416 607 9 4.1699999999999998e-01 -1.0928140054026835e+01 -3.0121304851694869e-01 7.7108562362621651e+00 0 0 0
887 765 10 -8.3399999999999996e-01 -1.0776618040494057e+01 -8.3441188941622713e+00 7.4793270308183568e-01 1 0 0
350 585 9 4.1699999999999998e-01 -1.1068662871802808e+01 -1.1865103536831885e+01 2.1857284736071452e+00 0 0 0
415 607 10 -8.3399999999999996e-01 -1.0927794997051386e+01 -7.9207305770023206e-01 8.5644488204430083e+00 0 0 0
352 586 10 -8.3399999999999996e-01 -1.0914981539689066e+01 -1.0340125345497279e+01 7.5098719605277653e+00 0 0 0
353 586 9 4.1699999999999998e-01 -9.9692803161063281e+00 -1.0349203490319153e+01 7.3203869636134531e+00 0 0 0
411 605 9 4.1699999999999998e-01 -1.0908761455624676e+01 -1.1474540851921915e+00 4.8493541259618622e+00 0 0 0
361 589 10 -8.3399999999999996e-01 -1.0937615858699361e+01 -6.8846964999968190e+00 1.2115921370767301e+01 0 0 -1
356 587 9 4.1699999999999998e-01 -1.1754312060691545e+01 -1.1589456507373736e+01 8.5069749095772114e+00 0 0 0
410 605 9 4.1699999999999998e-01 -1.1090073585987188e+01 -1.8881344627303489e+00 3.5515447098839621e+00 0 0 0
354 586 9 4.1699999999999998e-01 -1.1032837216207344e+01 -9.4176270778887279e+00 7.8296717686342641e+00 0 0 0
359 588 9 4.1699999999999998e-01 -1.0948590205141231e+01 -8.7985765493664587e+00 9.8396685886471538e+00 0 0 0
409 605 10 -8.3399999999999996e-01 -1.1095506805829455e+01 -2.0442056055459674e+00 4.5192311243530900e+00 0 0 0
376 594 10 -8.3399999999999996e-01 -1.0742010262743710e+01 -4.1272685008766929e+00 1.0181909480767850e+00 0 0 0
377 594 9 4.1699999999999998e-01 -9.8733567015262018e+00 -3.7119402582839109e+00 1.1019147854365656e+00 0 0 0
389 598 9 4.1699999999999998e-01 -1.1278468470178044e+01 -2.3206708272965795e+00 9.4352612298521272e+00 0 0 0
379 595 10 -8.3399999999999996e-01 -1.0903420875521693e+01 -7.9324532381766470e+00 4.5165209134834035e+00 0 0 0
380 595 9 4.1699999999999998e-01 -1.0631250147045108e+01 -7.3243261657318053e+00 5.2308487613020027e+00 0 0 0
387 597 9 4.1699999999999998e-01 -1.0835113701911698e+01 -7.1419908490682307e+00 7.6725266394927925e+00 0 0 0
382 596 10 -8.3399999999999996e-01 -1.0824454890373644e+01 -3.1460488048345585e+00 6.9919573744790942e+00 0 0 0
383 596 9 4.1699999999999998e-01 -1.0807605344844836e+01 -2.7346556594289795e+00 6.1063833536397834e+00 0 0 0
386 597 9 4.1699999999999998e-01 -1.1473976320089001e+01 -7.0637405929837822e+00 9.0065448895115701e+00 0 0 0
385 597 10 -8.3399999999999996e-01 -1.1039076657798207e+01 -7.7307198244814597e+00 8.4307704275875910e+00 0 0 0
378 594 9 4.1699999999999998e-01 -1.1310777185861879e+01 -3.3387543148731389e+00 1.0470402194231652e+00 0 0 0
381 595 9 4.1699999999999998e-01 -1.1089066929706322e+01 -7.2756640512931812e+00 3.8089221920566150e+00 0 0 0
348 584 9 4.1699999999999998e-01 -1.0641206055398658e+01 -9.5353956774442210e+00 2.0362499246129500e+00 0 0 0
384 596 9 4.1699999999999998e-01 -1.0769126961869494e+01 -2.3617648203319197e+00 7.5646404829289109e+00 0 0 0
950 786 10 -8.3399999999999996e-01 -1.1734411500444295e+01 -5.9044472565486483e+00 2.8744991362988337e+00 1 0 0
963 790 9 4.1699999999999998e-01 -1.0679257126427174e+01 -4.9542040642050473e+00 6.7240302831446970e+00 1 0 0
363 589 9 4.1699999999999998e-01 -1.1435831106299432e+01 -6.4657815543135024e+00 1.1378132640997277e+01 0 0 -1
962 790 10 -8.3399999999999996e-01 -1.0944788704064420e+01 -5.8666819621183475e+00 6.4700787509663664e+00 1 0 0
1011 806 9 4.1699999999999998e-01 -1.0835083105600749e+01 -3.6022264052294606e-01 2.4174329651482016e+00 1 0 0
417 607 9 4.1699999999999998e-01 -1.0896594125507029e+01 -5.2262398105423005e-02 9.1973452923484853e+00 0 0 0
903 770 9 4.1699999999999998e-01 -1.2214943135627568e+01 -1.0979802225175067e+01 6.4864606966795799e+00 1 0 0
1010 806 10 -8.3399999999999996e-01 -1.1009068361333263e+01 -1.1855182925421879e+00 1.9145706349255904e+00 1 0 0
889 765 9 4.1699999999999998e-01 -1.1693938084784929e+01 -8.0256118273263599e+00 8.7909260698890535e-01 1 0 0
1032 813 9 4.1699999999999998e-01 -1.1124704644233526e+01 -2.7116766285145405e-01 1.1432829776859615e+01 1 0 0
964 790 9 4.1699999999999998e-01 -1.1892413884626119e+01 -5.7174503135181993e+00 6.3258408230457173e+00 1 0 0
388 598 10 -8.3399999999999996e-01 -1.1702356381028032e+01 -2.9770388704167394e+00 1.0024739253440352e+01 0 0 0
975 794 9 4.1699999999999998e-01 -1.1842267817797500e+01 -4.7366656600394341e+00 9.9111161402551939e+00 1 0 0
390 598 9 4.1699999999999998e-01 -1.1653113118226347e+01 -2.4726232552091387e+00 1.0863527961816223e+01 0 0 0
974 794 10 -8.3399999999999996e-01 -1.2095753039830324e+01 -5.6873629205117391e+00 9.9627744126942250e+00 1 0 0
1012 806 9 4.1699999999999998e-01 -1.1186252431003265e+01 -7.7513501260653961e-01 1.0455442256973964e+00 1 0 0
1031 813 10 -8.3399999999999996e-01 -1.1453939185253230e+01 -1.0310759609887084e+00 1.1950372172712374e+01 1 0 0
360 588 9 4.1699999999999998e-01 -1.0862381007964711e+01 -8.5533061445849938e+00 1.1319417330210976e+01 0 0 0
358 588 10 -8.3399999999999996e-01 -1.1052634034507310e+01 -9.2711768518684110e+00 1.0687213584585608e+01 0 0 0
951 786 9 4.1699999999999998e-01 -1.1336823305583483e+01 -5.2692334696855179e+00 2.2431061417008045e+00 1 0 0
888 765 9 4.1699999999999998e-01 -1.0439312128168460e+01 -7.6085768188801630e+00 1.9807559768254987e-01 1 0 0
960 789 9 4.1699999999999998e-01 -1.2148281243095598e+01 -3.5473647357902709e+00 4.8448001502717100e+00 1 0 0
952 786 9 4.1699999999999998e-01 -1.2177763662873160e+01 -5.2928646849939947e+00 3.5009605503286640e+00 1 0 0
355 587 10 -8.3399999999999996e-01 -1.2182968798160873e+01 -1.2305643019586986e+01 9.0227493702934609e+00 0 0 0
73 73 8 0.0000000000000000e+00 -8.3826218135021620e+00 1.7150731589593127e+00 -1.1331770217056743e+01 0 0 0
74 74 8 0.0000000000000000e+00 -8.3874461791240016e+00 3.7809381739723666e+00 -9.2768280925893194e+00 0 0 0
77 77 8 0.0000000000000000e+00 -8.3524391079157869e+00 1.7255189914060818e+00 -7.2272719076089436e+00 0 0 0
78 78 8 0.0000000000000000e+00 -8.3467696686494737e+00 3.7768030272798065e+00 -5.1418153568768918e+00 0 0 0
81 81 8 0.0000000000000000e+00 -8.3764094348284051e+00 1.7182179093351284e+00 -3.0839062988280945e+00 0 0 0
82 82 8 0.0000000000000000e+00 -8.3922948930812655e+00 3.7808331396279371e+00 -1.0000919552891210e+00 0 0 0
97 97 8 0.0000000000000000e+00 -8.3367194234668816e+00 5.8130381256897214e+00 -1.1343394629015936e+01 0 0 0
98 98 8 0.0000000000000000e+00 -8.3713366612948459e+00 7.9017687706402269e+00 -9.2950210334484193e+00 0 0 0
101 101 8 0.0000000000000000e+00 -8.3783038596085095e+00 5.8539269417785205e+00 -7.2166693366967340e+00 0 0 0
102 102 8 0.0000000000000000e+00 -8.4083605240696286e+00 7.9178255035553677e+00 -5.1327649530053732e+00 0 0 0
105 105 8 0.0000000000000000e+00 -8.3929585564744205e+00 5.8530401919312611e+00 -3.0581372188528322e+00 0 0 0
106 106 8 0.0000000000000000e+00 -8.3444575574122251e+00 7.9033894513100549e+00 -9.7312303456121596e-01 0 0 0
121 121 8 0.0000000000000000e+00 -8.3769384039727903e+00 9.9740218341162130e+00 -1.1333841569755005e+01 0 0 0
122 122 8 0.0000000000000000e+00 -8.3353276512331398e+00 1.2039120157334965e+01 -9.2683547994544000e+00 0 0 0
125 125 8 0.0000000000000000e+00 -8.3710270624912813e+00 9.9662110542247362e+00 -7.2070393168236535e+00 0 0 0
126 126 8 0.0000000000000000e+00 -8.3906330263213871e+00 1.2015086702330173e+01 -5.1268050579370339e+00 0 0 0
129 129 8 0.0000000000000000e+00 -8.3440676024568958e+00 9.9592733758681202e+00 -3.0426245444565461e+00 0 0 0
130 130 8 0.0000000000000000e+00 -8.3692212327566917e+00 1.2027679770603578e+01 -1.0111021774335842e+00 0 0 0
394 600 10 -8.3399999999999996e-01 -1.1150502544744255e+01 7.0532192855833364e-01 -9.4757084154544540e+00 0 0 0
395 600 9 4.1699999999999998e-01 -1.1147384297887399e+01 1.6669344637753913e+00 -9.6700847357154736e+00 0 0 0
1107 838 9 4.1699999999999998e-01 -1.1707509678045497e+01 8.8473253380374608e+00 -4.7784060587419921e+00 1 0 0
1053 820 9 4.1699999999999998e-01 -1.1657315094212331e+01 2.3670853936747154e+00 -2.8027896308040416e+00 1 0 0
401 602 9 4.1699999999999998e-01 -1.0050726410583355e+01 9.9087637166257986e-02 -4.0069057248290099e+00 0 0 0
465 623 9 4.1699999999999998e-01 -1.0918225248825276e+01 9.0742497129640913e+00 -2.9258818545482970e+00 0 0 0
453 619 9 4.1699999999999998e-01 -1.1828566563751508e+01 1.0380704481572868e+01 -1.1078466471699409e+01 0 0 0
422 609 9 4.1699999999999998e-01 -1.1325776984162523e+01 4.1733076288420294e+00 -9.7846368100360941e+00 0 0 0
1112 840 10 -8.3399999999999996e-01 -1.1526098012922173e+01 1.1939394944392410e+01 -2.0550332990785263e+00 1 0 0
424 610 10 -8.3399999999999996e-01 -1.0832936054208913e+01 7.3235699822175961e+00 -1.1574703440024539e+01 0 0 0
425 610 9 4.1699999999999998e-01 -1.0904158420425382e+01 8.2205154742012549e+00 -1.1173123312159994e+01 0 0 0
426 610 9 4.1699999999999998e-01 -1.0640951221145556e+01 6.7841476360732909e+00 -1.0789062193573477e+01 0 0 0
427 611 10 -8.3399999999999996e-01 -1.0751108939689656e+01 3.7190257025383846e+00 -7.0326844860019220e+00 0 0 0
428 611 9 4.1699999999999998e-01 -1.0750430990593600e+01 4.3938538819990063e+00 -6.3230156213976185e+00 0 0 0
429 611 9 4.1699999999999998e-01 -1.0660242743121895e+01 4.2800840096776520e+00 -7.8154705323598721e+00 0 0 0
430 612 10 -8.3399999999999996e-01 -1.0682378094311153e+01 5.7548673414976044e+00 -5.1849810327677908e+00 0 0 0
431 612 9 4.1699999999999998e-01 -9.9289781152568182e+00 6.2125982398472930e+00 -4.7928965982301870e+00 0 0 0
432 612 9 4.1699999999999998e-01 -1.1334085704385624e+01 6.4924025797462681e+00 -5.2106895418492494e+00 0 0 0
433 613 10 -8.3399999999999996e-01 -1.0833826130038048e+01 3.7686274899311543e+00 -3.2567922271112262e+00 0 0 0
434 613 9 4.1699999999999998e-01 -1.0715151162816882e+01 4.2805343914380183e+00 -4.0756131411033829e+00 0 0 0
435 613 9 4.1699999999999998e-01 -1.1185463483687947e+01 4.4801700974829863e+00 -2.6808894906599408e+00 0 0 0
451 619 10 -8.3399999999999996e-01 -1.1500063023578099e+01 9.6700156339456331e+00 -1.0485299372652342e+01 0 0 0
452 619 9 4.1699999999999998e-01 -1.1263556160340375e+01 1.0205254816860664e+01 -9.6953286517992172e+00 0 0 0
463 623 10 -8.3399999999999996e-01 -1.1036901011257957e+01 8.4056941399712937e+00 -2.2246723770540062e+00 0 0 0
454 620 10 -8.3399999999999996e-01 -1.1014166148819907e+01 1.1161255623004356e+01 -8.2696211848555894e+00 0 0 0
455 620 9 4.1699999999999998e-01 -1.0810625879180064e+01 1.2046241818061381e+01 -8.6355628907545530e+00 0 0 0
456 620 9 4.1699999999999998e-01 -1.1344515089472079e+01 1.1450848990924570e+01 -7.3906061306967255e+00 0 0 0
457 621 10 -8.3399999999999996e-01 -1.0975717264974090e+01 8.2680426810891419e+00 -7.7804862054541060e+00 0 0 0
458 621 9 4.1699999999999998e-01 -1.0780363044731276e+01 9.2194050219795471e+00 -7.8883143548482781e+00 0 0 0
459 621 9 4.1699999999999998e-01 -1.1247964475387752e+01 8.2320565141329478e+00 -6.8378650656834763e+00 0 0 0
460 622 10 -8.3399999999999996e-01 -1.1066564914058970e+01 1.0340131091087287e+01 -4.1682946033402644e+00 0 0 0
461 622 9 4.1699999999999998e-01 -1.1218948954790326e+01 1.0975897641040882e+01 -4.8989749030435901e+00 0 0 0
462 622 9 4.1699999999999998e-01 -1.1172370810609724e+01 1.0954518378739428e+01 -3.4056683304369142e+00 0 0 0
1050 819 9 4.1699999999999998e-01 -1.0553710531551422e+01 6.5521656984670411e+00 -8.5713610797011945e+00 1 0 0
396 600 9 4.1699999999999998e-01 -1.1075245417687098e+01 7.2379143959544245e-01 -8.5010022672126695e+00 0 0 0
402 602 9 4.1699999999999998e-01 -1.1386783477214875e+01 2.3351097319490810e-01 -3.3468363171544642e+00 0 0 0
1049 819 10 -8.3399999999999996e-01 -1.0923318084693404e+01 5.8367780262520004e+00 -9.1299649077909972e+00 1 0 0
996 801 9 4.1699999999999998e-01 -1.0973206300025419e+01 1.9398468834794429e+00 -6.6837473832108856e+00 1 0 0
1056 821 9 4.1699999999999998e-01 -1.1617398088836969e+01 6.8205926398507755e+00 -2.1505443249305816e+00 1 0 0
1106 838 10 -8.3399999999999996e-01 -1.2040854626273052e+01 8.0884419673946990e+00 -5.3060941020379087e+00 1 0 0
995 801 10 -8.3399999999999996e-01 -1.1380232858081666e+01 1.0470743551067714e+00 -6.7498326975191603e+00 1 0 0
1052 820 10 -8.3399999999999996e-01 -1.2152484387251908e+01 1.5392448303010557e+00 -2.5857627947756532e+00 1 0 0
1103 837 10 -8.3399999999999996e-01 -1.1885764975252552e+01 1.2201230244059323e+01 -5.9327201715580555e+00 1 0 0
1055 821 10 -8.3399999999999996e-01 -1.1965964883778806e+01 5.9012139143976645e+00 -2.0436601481543430e+00 1 0 0
1051 819 9 4.1699999999999998e-01 -1.1841094308518393e+01 6.1574021999134496e+00 -9.2001974709245093e+00 1 0 0
421 609 10 -8.3399999999999996e-01 -1.1704760354662866e+01 3.2958338928567210e+00 -9.9828525066170002e+00 0 0 0
464 623 9 4.1699999999999998e-01 -1.0976745376588861e+01 8.9571509453044431e+00 -1.4218341841457374e+00 0 0 0
423 609 9 4.1699999999999998e-01 -1.1872193549883766e+01 3.3696636810319762e+00 -1.0948544942738256e+01 0 0 0
1008 805 9 4.1699999999999998e-01 -1.1586835301265380e+01 7.4590698539279321e-01 -1.1484053543206540e+00 1 0 0
438 614 9 4.1699999999999998e-01 -1.1391740974654676e+01 5.4371189428555518e+00 -4.7881611256683915e-01 0 0 0
468 624 9 4.1699999999999998e-01 -1.1120368246721634e+01 1.0863422160188589e+01 -7.8563627534104885e-01 0 0 0
1007 805 10 -8.3399999999999996e-01 -1.1218330175265383e+01 3.7148122496819969e-01 -3.1726495294704476e-01 1 0 0
997 801 9 4.1699999999999998e-01 -1.2295716512517595e+01 1.3206975089951778e+00 -6.9587991423507445e+00 1 0 0
466 624 10 -8.3399999999999996e-01 -1.0998749335332384e+01 1.0211106093719810e+01 -6.4151772813994964e-02 0 0 0
85 85 8 0.0000000000000000e+00 -8.3640287789959356e+00 1.6989719366587541e+00 1.0462928330747034e+00 0 0 0
86 86 8 0.0000000000000000e+00 -8.3330934444220919e+00 3.7517580067115261e+00 3.0989784427498259e+00 0 0 0
89 89 8 0.0000000000000000e+00 -8.2680166499059844e+00 1.6803076698610599e+00 5.1355871024831439e+00 0 0 0
90 90 8 0.0000000000000000e+00 -8.3345383183827515e+00 3.7623522412110257e+00 7.1606534002350326e+00 0 0 0
93 93 8 0.0000000000000000e+00 -8.3178487184643828e+00 1.6985749734704998e+00 9.2000513208232562e+00 0 0 0
94 94 8 0.0000000000000000e+00 -8.3516708065736474e+00 3.7556915665187636e+00 1.1256290255891813e+01 0 0 0
109 109 8 0.0000000000000000e+00 -8.2987723213767737e+00 5.8426646683484602e+00 1.0736536000383863e+00 0 0 0
110 110 8 0.0000000000000000e+00 -8.3345429870766434e+00 7.9089945138270030e+00 3.1068758393461011e+00 0 0 0
113 113 8 0.0000000000000000e+00 -8.3708760019997772e+00 5.8375207945205263e+00 5.1376496127096445e+00 0 0 0
114 114 8 0.0000000000000000e+00 -8.3267278550965216e+00 7.9182273763628501e+00 7.1837036477593106e+00 0 0 0
117 117 8 0.0000000000000000e+00 -8.3354926763679114e+00 5.8346750287936961e+00 9.2015630765947254e+00 0 0 0
118 118 8 0.0000000000000000e+00 -8.3657898607771148e+00 7.9041342391402774e+00 1.1260498322349326e+01 0 0 0
133 133 8 0.0000000000000000e+00 -8.3055172179593111e+00 9.9742669550184413e+00 1.0695552340112369e+00 0 0 0
134 134 8 0.0000000000000000e+00 -8.3191131893288777e+00 1.2049217851986354e+01 3.0913924766344660e+00 0 0 0
137 137 8 0.0000000000000000e+00 -8.3431932908057718e+00 9.9795342103146982e+00 5.1388199726232866e+00 0 0 0
138 138 8 0.0000000000000000e+00 -8.3417675786898364e+00 1.2061542377280663e+01 7.1764844601402435e+00 0 0 0
141 141 8 0.0000000000000000e+00 -8.3285615230995607e+00 9.9838659642483307e+00 9.2202429760706028e+00 0 0 0
142 142 8 0.0000000000000000e+00 -8.3508598804729814e+00 1.2044582902284283e+01 1.1277854021431715e+01 0 0 0
406 604 10 -8.3399999999999996e-01 -1.0881549490399642e+01 1.2870991093844357e+00 3.1184262386441350e+00 0 0 0
407 604 9 4.1699999999999998e-01 -1.0649621393603942e+01 1.9182852527984278e+00 3.8312277394079408e+00 0 0 0
479 628 9 4.1699999999999998e-01 -1.1328510963308041e+01 1.1184190537705971e+01 1.0012518042041743e+01 0 0 0
412 606 10 -8.3399999999999996e-01 -1.0845456188954111e+01 3.1111599563219818e+00 5.1839216656980662e+00 0 0 0
413 606 9 4.1699999999999998e-01 -1.0841608787548697e+01 3.8022417626501634e+00 4.4796315670913884e+00 0 0 0
478 628 10 -8.3399999999999996e-01 -1.1062640822498157e+01 1.0435819689982818e+01 1.0579894974560608e+01 0 0 0
474 626 9 4.1699999999999998e-01 -1.1757130524982136e+01 1.2108034412203803e+01 5.1601866164728101e+00 0 0 0
419 608 9 4.1699999999999998e-01 -1.0864412305473227e+01 2.0227129222121678e+00 9.8605503867802966e+00 0 0 0
476 627 9 4.1699999999999998e-01 -1.0360800006950569e+01 9.9777304696352900e+00 8.1669279281187226e+00 0 0 0
436 614 10 -8.3399999999999996e-01 -1.1088903683002542e+01 5.3024101799671417e+00 4.4427891447191314e-01 0 0 0
437 614 9 4.1699999999999998e-01 -1.0870963833965121e+01 6.2322884326559462e+00 6.8179290308478702e-01 0 0 0
1009 805 9 4.1699999999999998e-01 -1.1212676682153832e+01 1.2015026442729817e+00 2.1016975478067168e-01 1 0 0
439 615 10 -8.3399999999999996e-01 -1.1128156833787354e+01 4.9467864495073508e+00 3.2298429458249664e+00 0 0 0
440 615 9 4.1699999999999998e-01 -1.0889711493906377e+01 5.1172357329514204e+00 2.3022393109938881e+00 0 0 0
351 585 9 4.1699999999999998e-01 -1.0959731844333300e+01 1.1649351981005562e+01 3.1178171222352904e+00 0 -1 0
442 616 10 -8.3399999999999996e-01 -1.1165948774724377e+01 7.6544732874886874e+00 6.1626421761393733e+00 0 0 0
443 616 9 4.1699999999999998e-01 -1.1140220175710569e+01 8.5273361680300095e+00 6.5872720532659672e+00 0 0 0
475 627 10 -8.3399999999999996e-01 -1.0908482462535497e+01 1.0284845728563839e+01 7.4310408388986025e+00 0 0 0
445 617 10 -8.3399999999999996e-01 -1.0780114356610397e+01 3.5791876769763289e+00 9.0769035840469350e+00 0 0 0
446 617 9 4.1699999999999998e-01 -1.0581674238096040e+01 4.3265655446687328e+00 9.6739714955887415e+00 0 0 0
473 626 9 4.1699999999999998e-01 -1.0858185043705861e+01 1.1088147470228515e+01 5.8087916070269241e+00 0 0 0
408 604 9 4.1699999999999998e-01 -1.1022923234959258e+01 1.9040049900854870e+00 2.3658919027864322e+00 0 0 0
477 627 9 4.1699999999999998e-01 -1.1516020274299059e+01 1.0891088981994830e+01 7.8939349691380682e+00 0 0 0
472 626 10 -8.3399999999999996e-01 -1.1053403668015184e+01 1.1465489543091564e+01 4.9254234883675210e+00 0 0 0
1141 849 9 4.1699999999999998e-01 -1.1728346405010344e+01 7.8340995991163682e+00 1.1607032732113545e+01 1 0 0
467 624 9 4.1699999999999998e-01 -1.0998776442760651e+01 1.0810716816090915e+01 7.1318438384061067e-01 0 0 0
349 585 10 -8.3399999999999996e-01 -1.1197507853375198e+01 1.1819637243702322e+01 2.1827990723577657e+00 0 -1 0
469 625 10 -8.3399999999999996e-01 -1.0815857550359093e+01 7.8507657066110852e+00 1.2573256420317451e+00 0 0 0
470 625 9 4.1699999999999998e-01 -1.0727276435071818e+01 8.6896460486973996e+00 7.5613325937252174e-01 0 0 0
471 625 9 4.1699999999999998e-01 -1.0712562729829006e+01 8.1663009467965253e+00 2.1796147480267680e+00 0 0 0