LAMMPS data file via write_data, version 16 Mar 2018, timestep = 50000

1144 atoms
12 atom types
583 bonds
8 bond types
350 angles
13 angle types
132 dihedrals
18 dihedral types

-1.2188744875397886e+01 1.2188744875397886e+01 xlo xhi
-1.2188744875397886e+01 1.2188744875397886e+01 ylo yhi
-1.2188744875397886e+01 1.2188744875397886e+01 zlo zhi

Masses

1 1.008
2 1.008
3 12.011
4 12.011
5 15.9994
6 15.9994
7 32.06
8 196.966
9 1.008
10 15.9994
11 35.45
12 22.9898

Pair Coeffs # lj/charmmfsw/coul/long

1 0.028 2.38761 0.028 2.38761
2 0.024 2.38761 0.024 2.38761
3 0.056 3.58141 0.01 3.38542
4 0.078 3.63487 0.01 3.38542
5 0.1 2.93997 0.1 2.93997
6 0.12 3.02906 0.12 3.02906
7 0.47 3.74177 0.47 3.74177
8 5.29 2.62904 5.29 2.62904
9 0.046 0.400014 0.046 0.400014
10 0.1521 3.15057 0.1521 3.15057
11 0.15 4.04468 0.15 4.04468
12 0.0469 2.42993 0.0469 2.42993

Bond Coeffs # harmonic/omp

1 222.5 1.53
2 222.5 1.528
3 309 1.111
4 340 1.43
5 322 1.111
6 450 0.9572
7 540 1.448
8 250 1.575

Angle Coeffs # charmm/omp

1 58.35 113.6 11.16 2.561
2 58 115 8 2.561
3 26.5 110.1 22.53 2.179
4 75.7 110.1 0 0
5 34.6 110.1 22.53 2.179
6 15 109 27 1.9
7 34.6 110.1 22.53 2.179
8 35.5 109 5.4 1.802
9 60 109.5 0 0
10 35.5 108.4 5.4 1.802
11 55 104.52 0 0
12 130 109.47 35 2.45
13 85 98 0 0

Dihedral Coeffs # charmmfsw

1 0.101 2 0 1
2 0.142 3 180 0
3 0.074 4 0 0
4 0.097 5 0 0
5 0.162 2 0 1
6 0.047 3 180 0
7 0.105 4 0 0
8 0.177 5 0 0
9 0.19 3 0 1
10 0 3 0 1
11 0.16 3 0 1
12 0 3 0 1
13 0 3 0 1
14 0.19 3 0 1
15 0.19 3 0 1
16 0.19 3 0 1
17 0.16 3 0 1
18 0 3 0 1

Atoms # full

1 1 8 0.0000000000000000e+00 -8.1113649946384783e+00 -1.0258863469018733e+01 -1.1168055706346307e+01 0 0 0
2 2 8 0.0000000000000000e+00 -8.1095576099568980e+00 -8.2915582736484534e+00 -9.2091328308055438e+00 0 0 0
25 25 8 0.0000000000000000e+00 -8.1950300784936587e+00 -6.2911957809414405e+00 -1.1198358777610119e+01 0 0 0
26 26 8 0.0000000000000000e+00 -8.2913839399741693e+00 -4.2513476007877129e+00 -9.1640703228259355e+00 0 0 0
49 49 8 0.0000000000000000e+00 -8.1268870013544152e+00 -2.2463174563559818e+00 -1.1209553254084938e+01 0 0 0
332 579 9 4.1699999999999998e-01 -1.0466780165029984e+01 -1.0825384398980226e+01 -8.5200762864682602e+00 0 0 0
997 801 9 4.1699999999999998e-01 -1.0455221285588184e+01 -7.3695316445146020e-01 -7.3616022319755539e+00 1 0 0
335 580 9 4.1699999999999998e-01 -1.0184798930651208e+01 -8.8069497719749883e+00 -1.0670501981379191e+01 0 0 0
928 778 9 4.1699999999999998e-01 -1.1256973442647478e+01 -5.3243872417635352e+00 -8.2909344011948978e+00 1 0 0
171 171 8 0.0000000000000000e+00 -2.0396130376529751e+00 -6.2623001488280892e+00 -9.1736536914137652e+00 0 0 0
336 580 9 4.1699999999999998e-01 -1.1494484054304424e+01 -8.4482399595708202e+00 -1.1339860480556506e+01 0 0 0
333 579 9 4.1699999999999998e-01 -1.0870320314420558e+01 -1.0667077280273134e+01 -9.9706222973825263e+00 0 0 0
331 579 10 -8.3399999999999996e-01 -1.0721877630227000e+01 -1.0167997687288251e+01 -9.1674077223665478e+00 0 0 0
194 194 8 0.0000000000000000e+00 -4.2978278014490643e+00 -1.7087441812775417e-01 -9.2811134541891640e+00 0 0 0
877 761 9 4.1699999999999998e-01 -1.0689702749609097e+01 -8.6655860514350245e+00 -8.0860282461448740e+00 1 0 0
392 599 9 4.1699999999999998e-01 -1.0026130366358775e+01 -1.4656183833667153e+00 -9.8598921962594268e+00 0 0 0
926 778 10 -8.3399999999999996e-01 -1.1281120084670210e+01 -5.9478273222925422e+00 -9.0168883701478428e+00 1 0 0
876 761 9 4.1699999999999998e-01 -1.0769544756010873e+01 -7.2073132595447413e+00 -7.6872108576291769e+00 1 0 0
974 794 10 -8.3399999999999996e-01 -1.0576918626072228e+01 -4.3402804468896115e+00 -1.0951603192038048e+01 1 0 1
50 50 8 0.0000000000000000e+00 -8.1501553374170186e+00 -2.5601561043450971e-01 -9.3298714083565208e+00 0 0 0
172 172 8 0.0000000000000000e+00 -2.0096239883665827e+00 -4.1249021406197688e+00 -1.1147596364625114e+01 0 0 0
334 580 10 -8.3399999999999996e-01 -1.0576850239616578e+01 -8.1823047526685784e+00 -1.1280734395907189e+01 0 0 0
391 599 10 -8.3399999999999996e-01 -1.0410208450221848e+01 -2.1547885533415947e+00 -9.3178609561734564e+00 0 0 0
975 794 9 4.1699999999999998e-01 -9.9843626391023186e+00 -3.9651003978513160e+00 -1.1603052854663186e+01 1 0 1
3 3 8 0.0000000000000000e+00 -6.0964081763657285e+00 -1.0310456118475491e+01 -9.1291044781163944e+00 0 0 0
4 4 8 0.0000000000000000e+00 -6.0422674304963371e+00 -8.2971388977592913e+00 -1.1117667826335374e+01 0 0 0
27 27 8 0.0000000000000000e+00 -6.1180169625733569e+00 -6.2320972765306948e+00 -9.2062607611474494e+00 0 0 0
28 28 8 0.0000000000000000e+00 -6.0477809331103582e+00 -4.3864919220894736e+00 -1.1305559279772769e+01 0 0 0
51 51 8 0.0000000000000000e+00 -6.2018656302483937e+00 -2.3871831389260603e+00 -9.2054001419552307e+00 0 0 0
455 620 9 4.1699999999999998e-01 -1.0618741259651923e+01 -1.1734911860039075e+01 -1.2124227207900654e+01 0 1 0
145 145 8 0.0000000000000000e+00 -4.0515138338040000e+00 -1.0291342355846664e+01 -1.1157335167601957e+01 0 0 0
146 146 8 0.0000000000000000e+00 -3.9751860101860892e+00 -8.2594511089141918e+00 -9.2046775687374023e+00 0 0 0
169 169 8 0.0000000000000000e+00 -3.9285768442793092e+00 -6.2370976802614262e+00 -1.1199013343033608e+01 0 0 0
170 170 8 0.0000000000000000e+00 -4.0888111404619476e+00 -4.2435841394264218e+00 -9.1496744754631951e+00 0 0 0
193 193 8 0.0000000000000000e+00 -4.1604377136487578e+00 -2.2007519268071682e+00 -1.1315573423045798e+01 0 0 0
195 195 8 0.0000000000000000e+00 -2.2152617204527054e+00 -2.0633816992279765e+00 -8.9988445790220055e+00 0 0 0
147 147 8 0.0000000000000000e+00 -1.7380049450185631e+00 -1.0197771712268604e+01 -9.3842963333493543e+00 0 0 0
148 148 8 0.0000000000000000e+00 -1.9841531112397597e+00 -8.1667203861793425e+00 -1.1362899792169584e+01 0 0 0
393 599 9 4.1699999999999998e-01 -1.0559259324385218e+01 -2.8811585725098752e+00 -9.9232035387137696e+00 0 0 0
937 781 9 4.1699999999999998e-01 -1.0425767126592971e+01 -3.1071035841743146e+00 -7.9095246352503494e+00 1 0 0
196 196 8 0.0000000000000000e+00 -1.9287269510046006e+00 -8.1969404110781241e-02 -1.1217635883481558e+01 0 0 0
976 794 9 4.1699999999999998e-01 -1.1210074459713955e+01 -4.8428051432882722e+00 -1.1464294070872272e+01 1 0 1
927 778 9 4.1699999999999998e-01 -1.0832786441081705e+01 -5.4989953477449989e+00 -9.7336980818144703e+00 1 0 0
52 52 8 0.0000000000000000e+00 -6.1949287063099012e+00 -1.3315503623760527e-01 -1.1365228351713775e+01 0 0 0
454 620 10 -8.3399999999999996e-01 -1.0839280883449623e+01 -1.2150996752093713e+01 -1.1290857561579129e+01 0 1 0
618 674 9 4.1699999999999998e-01 -1.9883649721342245e-01 -7.4078731495810848e+00 -9.2787575289411368e+00 0 0 0
1119 842 9 4.1699999999999998e-01 -1.2149206142548289e+01 -6.0032847827456770e-01 -1.2186176716854918e+01 1 0 1
875 761 10 -8.3399999999999996e-01 -1.0573938948022031e+01 -8.0775048245689334e+00 -7.3396845332496614e+00 1 0 0
1033 813 9 4.1699999999999998e-01 -1.0651040104426361e+01 -1.7516033713410213e+00 -1.2073293241868043e+01 1 0 1
519 641 9 4.1699999999999998e-01 -2.0536936907305403e-02 -2.5517072024650513e+00 -7.8668791335342423e+00 0 0 0
1114 840 9 4.1699999999999998e-01 -1.1609751282558085e+01 -1.1586632634782367e+01 -3.7586531214182379e+00 1 1 0
6 6 8 0.0000000000000000e+00 -8.2163509229767371e+00 -8.2466239987288450e+00 -5.0732611932460916e+00 0 0 0
9 9 8 0.0000000000000000e+00 -8.1423480003200890e+00 -1.0241765260333525e+01 -3.0582022203822117e+00 0 0 0
197 197 8 0.0000000000000000e+00 -4.1120191846754182e+00 -2.2958804878070094e+00 -7.0253414932927347e+00 0 0 0
30 30 8 0.0000000000000000e+00 -8.2635331259427431e+00 -4.2018738313136108e+00 -5.1872025640386452e+00 0 0 0
33 33 8 0.0000000000000000e+00 -8.2533496500002492e+00 -6.2751136161450169e+00 -2.9546835054064893e+00 0 0 0
341 582 9 4.1699999999999998e-01 -1.1833631686282214e+01 -9.3276552500804737e+00 -2.7152053645540786e+00 0 0 0
404 603 9 4.1699999999999998e-01 -1.1664157399883305e+01 -4.3209055916369365e-02 -3.1176543795817881e+00 0 0 0
57 57 8 0.0000000000000000e+00 -8.2337198634214879e+00 -2.2118172332515069e+00 -3.1098250859109129e+00 0 0 0
5 5 8 0.0000000000000000e+00 -8.3114468687346559e+00 -1.0214411508742907e+01 -7.2426646039401703e+00 0 0 0
156 156 8 0.0000000000000000e+00 -2.0611392355061486e+00 -8.4010815409386641e+00 -3.0519007700068954e+00 0 0 0
368 591 9 4.1699999999999998e-01 -1.0352013888892822e+01 -6.7398023908701958e+00 -5.9690373918399962e+00 0 0 0
337 581 10 -8.3399999999999996e-01 -1.1442308653331509e+01 -1.0271162699838174e+01 -5.6572498221005523e+00 0 0 0
338 581 9 4.1699999999999998e-01 -1.1312011775654121e+01 -9.4511915535804434e+00 -6.1336314443257898e+00 0 0 0
29 29 8 0.0000000000000000e+00 -8.0638347310593304e+00 -6.2543941436883586e+00 -7.1629746435197674e+00 0 0 0
370 592 10 -8.3399999999999996e-01 -1.0735948639187015e+01 -4.0330986957055863e+00 -2.7694771178464315e+00 0 0 0
199 199 8 0.0000000000000000e+00 -2.0533631278257722e+00 -2.2323113318352128e+00 -5.0861931606510602e+00 0 0 0
397 601 10 -8.3399999999999996e-01 -1.0691446578695640e+01 -2.2463447476933762e+00 -4.7001176719841853e+00 0 0 0
398 601 9 4.1699999999999998e-01 -1.0408888324614134e+01 -2.8417367288430402e+00 -4.0058996988442157e+00 0 0 0
201 201 8 0.0000000000000000e+00 -4.0810382607553759e+00 -2.1502087583481870e+00 -2.9731729271557832e+00 0 0 0
367 591 10 -8.3399999999999996e-01 -1.0690556740008041e+01 -6.0744235230168799e+00 -5.3699305260914425e+00 0 0 0
371 592 9 4.1699999999999998e-01 -1.1569227348437252e+01 -4.3209411053184859e+00 -3.1423900982152322e+00 0 0 0
198 198 8 0.0000000000000000e+00 -4.1391963222802932e+00 -1.2418126553466458e-01 -5.1610325996153286e+00 0 0 0
152 152 8 0.0000000000000000e+00 -2.0204055241489609e+00 -8.4046409662356520e+00 -7.0606753903404424e+00 0 0 0
176 176 8 0.0000000000000000e+00 -1.8181102260624389e+00 -4.2253961324280223e+00 -7.2145022890170045e+00 0 0 0
60 60 8 0.0000000000000000e+00 -6.1314745651719056e+00 -1.8334204397999621e-01 -3.0834060660945877e+00 0 0 0
32 32 8 0.0000000000000000e+00 -6.1158877828066949e+00 -4.1962105457709074e+00 -7.0988683379930047e+00 0 0 0
936 781 9 4.1699999999999998e-01 -1.0846480692879673e+01 -3.1382011218519335e+00 -6.4555568891874353e+00 1 0 0
399 601 9 4.1699999999999998e-01 -1.0871613164073278e+01 -1.4210528475282551e+00 -4.2498923653565202e+00 0 0 0
173 173 8 0.0000000000000000e+00 -3.8979643228562519e+00 -6.1476167285355379e+00 -6.9793999487129463e+00 0 0 0
54 54 8 0.0000000000000000e+00 -8.0886669678045457e+00 -2.3847436860227056e-01 -5.0628600363356950e+00 0 0 0
175 175 8 0.0000000000000000e+00 -1.7027518054941968e+00 -6.3678730357572979e+00 -4.9736814073949533e+00 0 0 0
180 180 8 0.0000000000000000e+00 -1.9688064689998228e+00 -4.2366539533180081e+00 -3.0349628992748485e+00 0 0 0
339 581 9 4.1699999999999998e-01 -1.1298857615055127e+01 -1.0954520171790936e+01 -6.3120127420666883e+00 0 0 0
7 7 8 0.0000000000000000e+00 -6.2271101928100956e+00 -1.0364264025969950e+01 -5.1451817097612569e+00 0 0 0
151 151 8 0.0000000000000000e+00 -2.0804390561360275e+00 -1.0415759428805998e+01 -4.9783472037129206e+00 0 0 0
12 12 8 0.0000000000000000e+00 -6.1568171704542562e+00 -8.2748001014273100e+00 -3.1088667678082018e+00 0 0 0
31 31 8 0.0000000000000000e+00 -6.1107401590483050e+00 -6.2141768519347389e+00 -5.0274905996230332e+00 0 0 0
342 582 9 4.1699999999999998e-01 -1.1304062115537260e+01 -8.9048590961877387e+00 -4.0690106753247317e+00 0 0 0
36 36 8 0.0000000000000000e+00 -6.1730346593996206e+00 -4.2609206592812487e+00 -3.1273309551731199e+00 0 0 0
55 55 8 0.0000000000000000e+00 -6.0548872085994754e+00 -2.1794953166262943e+00 -5.0833919601164936e+00 0 0 0
8 8 8 0.0000000000000000e+00 -5.9876120209080383e+00 -8.2347903798199127e+00 -7.2068355417342591e+00 0 0 0
200 200 8 0.0000000000000000e+00 -2.1269563965279090e+00 -5.5592880824059776e-02 -7.1123924517209387e+00 0 0 0
369 591 9 4.1699999999999998e-01 -1.0170672508397082e+01 -5.2934904845549307e+00 -5.5600261949779748e+00 0 0 0
150 150 8 0.0000000000000000e+00 -4.0350542804894740e+00 -8.3801360137895564e+00 -5.1080609154235121e+00 0 0 0
153 153 8 0.0000000000000000e+00 -4.1384678242036550e+00 -1.0388144187329726e+01 -3.0205706039795217e+00 0 0 0
340 582 10 -8.3399999999999996e-01 -1.1556023115197661e+01 -8.5585811685653788e+00 -3.2129283964450259e+00 0 0 0
174 174 8 0.0000000000000000e+00 -3.9919658103108961e+00 -4.2728330839833024e+00 -4.9285372645098811e+00 0 0 0
177 177 8 0.0000000000000000e+00 -4.0838282262795378e+00 -6.3324087255735346e+00 -3.0708013348324616e+00 0 0 0
995 801 10 -8.3399999999999996e-01 -1.0684218671740290e+01 -3.0909317941089931e-01 -6.5365169638838125e+00 1 0 0
53 53 8 0.0000000000000000e+00 -8.1849286605785174e+00 -2.3272344253695927e+00 -7.1563990960936819e+00 0 0 0
149 149 8 0.0000000000000000e+00 -4.0234343609360508e+00 -1.0340261147395870e+01 -7.1404987571741305e+00 0 0 0
996 801 9 4.1699999999999998e-01 -1.0712079454335852e+01 -1.0206442349286817e+00 -5.8968384996576830e+00 1 0 0
56 56 8 0.0000000000000000e+00 -6.2023552134472801e+00 -2.9162832296125352e-01 -7.1276184107136658e+00 0 0 0
403 603 10 -8.3399999999999996e-01 -1.0707110608881234e+01 -3.5517982754875277e-02 -3.1341400513779121e+00 0 0 0
935 781 10 -8.3399999999999996e-01 -1.0754117015907168e+01 -3.6946655288929815e+00 -7.2289168612168417e+00 1 0 0
204 204 8 0.0000000000000000e+00 -2.0221884226624720e+00 -2.5845061514736756e-02 -3.0878858641265019e+00 0 0 0
10 10 8 0.0000000000000000e+00 -8.1754446036342348e+00 -8.2396486849936039e+00 -1.0032682241750788e+00 0 0 0
34 34 8 0.0000000000000000e+00 -8.2525610007963479e+00 -4.1664828797800766e+00 -9.9995763024352513e-01 0 0 0
1011 806 9 4.1699999999999998e-01 -1.0733131978683542e+01 -3.9344552128629751e-01 5.2135141465861956e-01 1 0 0
343 583 10 -8.3399999999999996e-01 -1.0764394208085637e+01 -1.0628525178544592e+01 -8.6225437254338111e-01 0 0 0
373 593 10 -8.3399999999999996e-01 -1.0878546118444405e+01 -6.6720071977434863e+00 -1.2936302485644440e+00 0 0 0
953 787 10 -8.3399999999999996e-01 -1.0892968134608511e+01 -1.7699533634318119e+00 -5.0841530506417243e-01 1 0 0
208 208 8 0.0000000000000000e+00 -1.9915684259202493e+00 -1.0856267914051188e-01 8.8170742075092434e-01 0 0 0
378 594 9 4.1699999999999998e-01 -1.0229829726851776e+01 -3.7331671427970896e+00 4.7566161561342213e-01 0 0 0
202 202 8 0.0000000000000000e+00 -4.0795000068822151e+00 -4.3972211007469397e-02 -1.2020644643519525e+00 0 0 0
377 594 9 4.1699999999999998e-01 -1.0643281564948378e+01 -3.4160172151525270e+00 1.8970913761226171e+00 0 0 0
184 184 8 0.0000000000000000e+00 -1.9597036593244557e+00 -4.1462409749701479e+00 9.7491907806998235e-01 0 0 0
345 583 9 4.1699999999999998e-01 -1.0662666539446079e+01 -1.1279018472009026e+01 -1.6743031620047688e-01 0 0 0
13 13 8 0.0000000000000000e+00 -8.1946408616734630e+00 -1.0309916960941457e+01 1.0458752414373969e+00 0 0 0
37 37 8 0.0000000000000000e+00 -8.1618190000543187e+00 -6.2109662472162288e+00 9.7708255869984129e-01 0 0 0
61 61 8 0.0000000000000000e+00 -8.2223348030638999e+00 -2.1114739189916190e+00 9.1663195528568941e-01 0 0 0
372 592 9 4.1699999999999998e-01 -1.0482595507605815e+01 -4.7390111156812482e+00 -2.1746908250434451e+00 0 0 0
887 765 10 -8.3399999999999996e-01 -1.0491800070579497e+01 -8.5316107351041257e+00 8.9296231672392778e-01 1 0 0
64 64 8 0.0000000000000000e+00 -6.1646169464890228e+00 -1.4685121090546716e-01 8.2245192476127116e-01 0 0 0
58 58 8 0.0000000000000000e+00 -8.2569203399697439e+00 -1.2419840496600720e-01 -1.2441822703515246e+00 0 0 0
179 179 8 0.0000000000000000e+00 -2.1002526024012607e+00 -6.1770537622470725e+00 -1.0174447227787198e+00 0 0 0
160 160 8 0.0000000000000000e+00 -1.9946320574777676e+00 -8.3412124655162039e+00 9.8040377446673155e-01 0 0 0
205 205 8 0.0000000000000000e+00 -4.1350207085071631e+00 -2.1194362383257559e+00 8.1740860627828837e-01 0 0 0
955 787 9 4.1699999999999998e-01 -1.1760649640749486e+01 -2.0036853050056784e+00 -8.3821579645268152e-01 1 0 0
888 765 9 4.1699999999999998e-01 -1.0631003321301481e+01 -7.9681443763741298e+00 1.6541443151437516e+00 1 0 0
376 594 10 -8.3399999999999996e-01 -1.0670644123483880e+01 -4.1092449447206079e+00 1.2375788343421181e+00 0 0 0
889 765 9 4.1699999999999998e-01 -1.0555148737433237e+01 -7.9409756602925476e+00 1.4235784888901826e-01 1 0 0
961 789 9 4.1699999999999998e-01 -1.0464595516018100e+01 -1.2996867252763042e+00 2.1221418752560943e+00 1 0 0
11 11 8 0.0000000000000000e+00 -6.2220836501701458e+00 -1.0334554834268573e+01 -1.0564553684977582e+00 0 0 0
35 35 8 0.0000000000000000e+00 -6.0257242849653636e+00 -6.2629755239413338e+00 -1.0713087226322813e+00 0 0 0
59 59 8 0.0000000000000000e+00 -6.1507613190786516e+00 -2.2192954438992540e+00 -1.0708878581780059e+00 0 0 0
154 154 8 0.0000000000000000e+00 -4.1701350291125596e+00 -8.2778923125284276e+00 -1.0353804190112985e+00 0 0 0
178 178 8 0.0000000000000000e+00 -4.1530365447712256e+00 -4.2110323675497137e+00 -1.1480857962592594e+00 0 0 0
155 155 8 0.0000000000000000e+00 -2.0183920216452673e+00 -1.0349103639854832e+01 -9.5386909959024102e-01 0 0 0
16 16 8 0.0000000000000000e+00 -6.1526091469163271e+00 -8.3034002375396874e+00 9.4159634835369488e-01 0 0 0
40 40 8 0.0000000000000000e+00 -6.0555681841696147e+00 -4.2028599549431593e+00 1.0070745358964217e+00 0 0 0
203 203 8 0.0000000000000000e+00 -2.0311336415125805e+00 -2.2789253467925530e+00 -1.0479832523979393e+00 0 0 0
157 157 8 0.0000000000000000e+00 -4.1533015043810320e+00 -1.0421622012350030e+01 1.0351875283429059e+00 0 0 0
181 181 8 0.0000000000000000e+00 -4.0045094219358646e+00 -6.3029015438472751e+00 1.1200162249150978e+00 0 0 0
344 583 9 4.1699999999999998e-01 -1.0347811481048913e+01 -9.8396301038384735e+00 -5.1530640724177346e-01 0 0 0
954 787 9 4.1699999999999998e-01 -1.0395936919593165e+01 -1.5290838175191883e+00 -1.2902161157570102e+00 1 0 0
375 593 9 4.1699999999999998e-01 -1.1640756053475853e+01 -6.0930626275360353e+00 -1.2822857527437552e+00 0 0 0
916 774 9 4.1699999999999998e-01 -1.2011144859415818e+01 -4.6580418162944843e+00 -9.5538247678383925e-02 1 0 1
348 584 9 4.1699999999999998e-01 -1.1073514465903079e+01 -9.9336469929280291e+00 2.0173070660480459e+00 0 0 0
374 593 9 4.1699999999999998e-01 -1.1064085632786583e+01 -7.2993880167284049e+00 -1.9923708510087010e+00 0 0 0
952 786 9 4.1699999999999998e-01 -1.0791672072239855e+01 -5.5617687294580040e+00 2.0956349555970064e+00 1 0 0
1113 840 9 4.1699999999999998e-01 -1.1275192649101941e+01 -1.1802424876175179e+01 -2.2980041657739729e+00 1 1 0
14 14 8 0.0000000000000000e+00 -8.2742213571619256e+00 -8.3551413051146817e+00 3.0732255184332669e+00 0 0 0
17 17 8 0.0000000000000000e+00 -8.4439313146765720e+00 -1.0471770466637816e+01 5.0882724701923774e+00 0 0 0
380 595 9 4.1699999999999998e-01 -1.0242840403951817e+01 -7.4790281478977665e+00 4.3235824865159973e+00 0 0 0
38 38 8 0.0000000000000000e+00 -8.1774409360601243e+00 -4.0792733546558519e+00 3.1109124339861225e+00 0 0 0
41 41 8 0.0000000000000000e+00 -8.1126642517658691e+00 -6.1710888852192216e+00 5.0894330411005431e+00 0 0 0
410 605 9 4.1699999999999998e-01 -1.1604042524270115e+01 -3.9604004289937400e-01 5.1331058212905400e+00 0 0 0
211 211 8 0.0000000000000000e+00 -2.0496583970889848e+00 -2.2241947022783410e+00 7.1940152972478639e+00 0 0 0
65 65 8 0.0000000000000000e+00 -8.2376294811734248e+00 -2.1262501585776974e+00 5.1600777063208501e+00 0 0 0
347 584 9 4.1699999999999998e-01 -1.0955003099664228e+01 -9.6142456090076927e+00 3.4924096349524767e+00 0 0 0
210 210 8 0.0000000000000000e+00 -4.0354962570919870e+00 -1.6376476382168903e-01 7.2112540789253305e+00 0 0 0
163 163 8 0.0000000000000000e+00 -2.0206521770350943e+00 -1.0323399154524910e+01 7.0351598353559641e+00 0 0 0
188 188 8 0.0000000000000000e+00 -1.9131568928298055e+00 -4.0834223877993274e+00 4.9387813017857329e+00 0 0 0
183 183 8 0.0000000000000000e+00 -1.9386300931149218e+00 -6.2255146811250084e+00 3.0829046158389080e+00 0 0 0
473 626 9 4.1699999999999998e-01 -1.1353655071777158e+01 -1.1563809743242757e+01 4.3672616482051243e+00 0 1 0
951 786 9 4.1699999999999998e-01 -1.1432661733974701e+01 -5.8954325917078627e+00 3.4259702272166361e+00 1 0 0
379 595 10 -8.3399999999999996e-01 -1.0634391591204635e+01 -8.0598414586063658e+00 4.9759725386121740e+00 0 0 0
62 62 8 0.0000000000000000e+00 -8.2379592269008004e+00 -3.0826096717458995e-01 3.0107986188405551e+00 0 0 0
67 67 8 0.0000000000000000e+00 -6.0949094509645620e+00 -2.1614375994380897e+00 7.1266834787277649e+00 0 0 0
186 186 8 0.0000000000000000e+00 -3.9757791744374185e+00 -4.2570711332978055e+00 7.1165348688733712e+00 0 0 0
206 206 8 0.0000000000000000e+00 -4.0868393454623320e+00 -1.7967069042595618e-01 3.0218779862266736e+00 0 0 0
164 164 8 0.0000000000000000e+00 -1.9617635192816163e+00 -8.2001361503705645e+00 5.0198701997311854e+00 0 0 0
42 42 8 0.0000000000000000e+00 -8.2165764682138036e+00 -4.2406058068715913e+00 7.1262172629942935e+00 0 0 0
207 207 8 0.0000000000000000e+00 -2.0366277714903731e+00 -2.0848680316926078e+00 2.9985055926802993e+00 0 0 0
43 43 8 0.0000000000000000e+00 -6.0786945721301020e+00 -6.3284216889342870e+00 7.1067224142151684e+00 0 0 0
409 605 10 -8.3399999999999996e-01 -1.0710064173592901e+01 -2.9741537577947419e-01 5.4607416418000891e+00 0 0 0
962 790 10 -8.3399999999999996e-01 -1.0985323451155578e+01 -3.5981017729380298e+00 5.0845274506545248e+00 1 0 0
346 584 10 -8.3399999999999996e-01 -1.1166787021133608e+01 -1.0324167436831667e+01 2.8862510989432035e+00 0 0 0
68 68 8 0.0000000000000000e+00 -6.0978411599165856e+00 -1.9485943664847305e-01 5.0725101265999069e+00 0 0 0
381 595 9 4.1699999999999998e-01 -1.0756743717337429e+01 -7.5064325754160315e+00 5.7473596487419396e+00 0 0 0
385 597 10 -8.3399999999999996e-01 -1.0773342601251994e+01 -5.7853998369135136e+00 6.6114387557820908e+00 0 0 0
66 66 8 0.0000000000000000e+00 -8.1954598088038892e+00 -2.3361912631165538e-01 7.0838225887083386e+00 0 0 0
15 15 8 0.0000000000000000e+00 -6.2127343889379905e+00 -1.0286342567448155e+01 3.0342398885238993e+00 0 0 0
212 212 8 0.0000000000000000e+00 -1.9263376666285286e+00 -2.5275075435725292e-01 5.3036756350700340e+00 0 0 0
20 20 8 0.0000000000000000e+00 -6.2694976737829515e+00 -8.2946335984223261e+00 5.0868096769302671e+00 0 0 0
39 39 8 0.0000000000000000e+00 -6.1414387529912355e+00 -6.1883429841163027e+00 3.0551992377532518e+00 0 0 0
162 162 8 0.0000000000000000e+00 -4.1801167292539407e+00 -8.2858115097935396e+00 7.1579245832517326e+00 0 0 0
44 44 8 0.0000000000000000e+00 -6.1347088246488939e+00 -4.1583379521136408e+00 5.1131808576765341e+00 0 0 0
63 63 8 0.0000000000000000e+00 -6.0450493056961117e+00 -2.1445533753160912e+00 2.9527372046177796e+00 0 0 0
19 19 8 0.0000000000000000e+00 -6.1942345890707156e+00 -1.0419377072777227e+01 7.1391658913597897e+00 0 0 0
950 786 10 -8.3399999999999996e-01 -1.0943758534939995e+01 -6.2866779081743589e+00 2.7019728298959826e+00 1 0 0
158 158 8 0.0000000000000000e+00 -4.2634300892392512e+00 -8.3642141399920789e+00 3.0872931830602344e+00 0 0 0
161 161 8 0.0000000000000000e+00 -4.1843334803277958e+00 -1.0365583642939932e+01 5.0838409283499519e+00 0 0 0
411 605 9 4.1699999999999998e-01 -1.0594756609656210e+01 -1.0287836847161085e+00 6.0674325787288002e+00 0 0 0
182 182 8 0.0000000000000000e+00 -4.0909712263769435e+00 -4.1198573588117284e+00 2.9099078704261530e+00 0 0 0
185 185 8 0.0000000000000000e+00 -4.0791388715666805e+00 -6.1158122901970806e+00 4.9986629106598510e+00 0 0 0
964 790 9 4.1699999999999998e-01 -1.0633477294722006e+01 -3.2101601023482136e+00 4.2832938962940457e+00 1 0 0
963 790 9 4.1699999999999998e-01 -1.0941718433339062e+01 -2.8938572310269564e+00 5.7313717481943680e+00 1 0 0
209 209 8 0.0000000000000000e+00 -4.0115334074927400e+00 -2.2019167806474425e+00 5.0798238324486018e+00 0 0 0
187 187 8 0.0000000000000000e+00 -1.9177758315141453e+00 -6.3317094256132620e+00 7.1012797409696216e+00 0 0 0
159 159 8 0.0000000000000000e+00 -2.0667649741594065e+00 -1.0307897325146442e+01 3.1940841394120785e+00 0 0 0
18 18 8 0.0000000000000000e+00 -8.2347804638175361e+00 -8.3650454618747254e+00 7.0102909080496918e+00 0 0 0
353 586 9 4.1699999999999998e-01 -1.1016272276323365e+01 -1.1288779871785760e+01 6.3591018564916002e+00 0 0 0
354 586 9 4.1699999999999998e-01 -1.1018238774495250e+01 -9.7805322307726534e+00 6.2280486060461246e+00 0 0 0
959 789 10 -8.3399999999999996e-01 -1.0682195688967225e+01 -1.9734456903110154e+00 2.7663222689874090e+00 1 0 0
387 597 9 4.1699999999999998e-01 -1.0901016649823934e+01 -5.1231177193742372e+00 5.9322105139082542e+00 0 0 0
960 789 9 4.1699999999999998e-01 -1.1424748789420738e+01 -1.6119126859511628e+00 3.2502417448229064e+00 1 0 0
352 586 10 -8.3399999999999996e-01 -1.1053004811842339e+01 -1.0484078739339781e+01 6.8761866243546681e+00 0 0 0
21 21 8 0.0000000000000000e+00 -8.2982915185117889e+00 -1.0222791550016506e+01 9.1776967828317755e+00 0 0 0
22 22 8 0.0000000000000000e+00 -8.3408525876618445e+00 -8.3120199248787561e+00 1.1178183791783505e+01 0 0 0
45 45 8 0.0000000000000000e+00 -8.2599289289418607e+00 -6.3309452118316258e+00 9.0244474792064135e+00 0 0 0
46 46 8 0.0000000000000000e+00 -8.2779823086310707e+00 -4.3140529302714210e+00 1.1172699588659716e+01 0 0 0
69 69 8 0.0000000000000000e+00 -8.3747606445902925e+00 -2.2625527270105579e+00 9.1117146017919897e+00 0 0 0
361 589 10 -8.3399999999999996e-01 -1.0574386260083385e+01 -6.3060438125142095e+00 1.1057477577579681e+01 0 0 -1
970 792 9 4.1699999999999998e-01 -1.0951284607176946e+01 -3.6627664884823865e+00 1.0014495926771415e+01 1 0 0
1138 848 9 4.1699999999999998e-01 -1.1106689584596801e+01 -1.1734828202740378e+01 8.4735685094912245e+00 1 1 0
214 214 8 0.0000000000000000e+00 -4.2019105394986092e+00 -1.8183255302831114e-01 1.1046694020755480e+01 0 0 0
360 588 9 4.1699999999999998e-01 -1.0597288346854944e+01 -8.7897797474933448e+00 8.5388309867563965e+00 0 0 0
359 588 9 4.1699999999999998e-01 -1.1739949477702551e+01 -7.9121557895422665e+00 9.0036868440250490e+00 0 0 0
384 596 9 4.1699999999999998e-01 -1.0861230273238947e+01 -2.8268375221598347e+00 8.2795443305763126e+00 0 0 0
968 792 10 -8.3399999999999996e-01 -1.0680824710381465e+01 -4.1899706289502987e+00 9.2627136426743828e+00 1 0 0
1137 848 9 4.1699999999999998e-01 -1.0714055825315734e+01 -1.2011071213334215e+01 9.9093675922436812e+00 1 1 0
969 792 9 4.1699999999999998e-01 -1.0507598232860300e+01 -5.0576522926534864e+00 9.6279403458352828e+00 1 0 0
1031 813 10 -8.3399999999999996e-01 -1.0588171932058032e+01 -2.2503631778707849e+00 1.1489607387756481e+01 1 0 0
355 587 10 -8.3399999999999996e-01 -1.0928451223776809e+01 -1.0425826274168964e+01 1.0986746788133020e+01 0 0 0
72 72 8 0.0000000000000000e+00 -6.2287072743618870e+00 -1.6186758409272706e-01 9.0430013014552610e+00 0 0 0
363 589 9 4.1699999999999998e-01 -1.0406877290252735e+01 -6.9923911888222063e+00 1.0411615673155472e+01 0 0 -1
358 588 10 -8.3399999999999996e-01 -1.0935556571629316e+01 -8.3320701309001048e+00 9.3084711250955525e+00 0 0 0
192 192 8 0.0000000000000000e+00 -1.9004376293642125e+00 -4.2011376280489303e+00 9.1375013096186546e+00 0 0 0
191 191 8 0.0000000000000000e+00 -1.8320793343537307e+00 -6.0866563886715754e+00 1.1267247173274905e+01 0 0 0
685 697 9 4.1699999999999998e-01 -4.2178062710830133e-02 -3.5465313136430971e+00 1.1697127015561053e+01 0 0 -1
215 215 8 0.0000000000000000e+00 -1.9670800599870688e+00 -2.1727715340239548e+00 1.1235403420121591e+01 0 0 0
362 589 9 4.1699999999999998e-01 -1.0451728656027285e+01 -6.7372568973760734e+00 1.1903220033736405e+01 0 0 -1
383 596 9 4.1699999999999998e-01 -1.1126180945016783e+01 -1.3370779848955969e+00 8.2304864912430151e+00 0 0 0
23 23 8 0.0000000000000000e+00 -6.0645500158477352e+00 -1.0305009438480138e+01 1.1106924232009222e+01 0 0 0
24 24 8 0.0000000000000000e+00 -6.1456083810869586e+00 -8.3527990805785617e+00 9.1042139256089829e+00 0 0 0
47 47 8 0.0000000000000000e+00 -6.1604162037059034e+00 -6.1896540913826588e+00 1.1070848959094745e+01 0 0 0
48 48 8 0.0000000000000000e+00 -6.0766130091078683e+00 -4.2014881901903376e+00 9.1138989317754362e+00 0 0 0
71 71 8 0.0000000000000000e+00 -6.2047694908804010e+00 -2.2359061267774809e+00 1.1015869857125532e+01 0 0 0
357 587 9 4.1699999999999998e-01 -1.1704662198557035e+01 -1.0369874291465269e+01 1.1544093286872622e+01 0 0 0
165 165 8 0.0000000000000000e+00 -3.9678696311724195e+00 -1.0380422641819413e+01 8.9956818091914972e+00 0 0 0
166 166 8 0.0000000000000000e+00 -4.0443774662927208e+00 -8.2117627411548746e+00 1.1164680531674007e+01 0 0 0
189 189 8 0.0000000000000000e+00 -3.9444288186279284e+00 -6.2511700323879875e+00 9.1544800858749031e+00 0 0 0
190 190 8 0.0000000000000000e+00 -3.9764606837931709e+00 -4.3233233191446585e+00 1.1112896789042859e+01 0 0 0
213 213 8 0.0000000000000000e+00 -3.9898111062460515e+00 -2.2128464126596779e+00 9.1244840234238662e+00 0 0 0
1032 813 9 4.1699999999999998e-01 -1.0497776152362475e+01 -1.5851470187427612e+00 1.0807269302071505e+01 1 0 0
167 167 8 0.0000000000000000e+00 -2.0581122336115403e+00 -1.0361805915615561e+01 1.1161348199819104e+01 0 0 0
168 168 8 0.0000000000000000e+00 -2.0983830513377217e+00 -8.3917185621802783e+00 9.1739243915389377e+00 0 0 0
386 597 9 4.1699999999999998e-01 -1.0766103875901633e+01 -5.2905527525531744e+00 7.4307941032365949e+00 0 0 0
216 216 8 0.0000000000000000e+00 -1.8819709282000652e+00 -1.7483789162863594e-01 9.1763027377310085e+00 0 0 0
356 587 9 4.1699999999999998e-01 -1.0984413728480996e+01 -9.6568682858781791e+00 1.0419436210190634e+01 0 0 0
70 70 8 0.0000000000000000e+00 -8.1457986542870877e+00 -4.0884883461339605e-01 1.1112805588878123e+01 0 0 0
382 596 10 -8.3399999999999996e-01 -1.0908804494069619e+01 -2.0859476872432658e+00 7.6753189005953661e+00 0 0 0
723 710 9 4.1699999999999998e-01 -4.8208315095453536e-01 -4.1814379643170927e+00 7.3175777061065563e+00 0 0 -1
73 73 8 0.0000000000000000e+00 -8.3648846933775598e+00 1.8542999604139307e+00 -1.1297949874218077e+01 0 0 0
74 74 8 0.0000000000000000e+00 -8.4234487162447635e+00 3.9377151632556515e+00 -9.1873884713546126e+00 0 0 0