LAMMPS data file via write_data, version 16 Mar 2018, timestep = 2500

714 atoms
12 atom types
403 bonds
8 bond types
260 angles
13 angle types
132 dihedrals
18 dihedral types

-1.9725386000000000e+01 1.9725386000000000e+01 xlo xhi
-7.3970199000000001e+00 7.3970199000000001e+00 ylo yhi
-7.3970199000000001e+00 7.3970199000000001e+00 zlo zhi

Masses

1 1.008
2 1.008
3 12.011
4 12.011
5 15.9994
6 15.9994
7 32.06
8 196.966
9 1.008
10 15.9994
11 35.45
12 22.9898

Pair Coeffs # lj/charmmfsw/coul/long

1 0.028 2.38761 0.028 2.38761
2 0.024 2.38761 0.024 2.38761
3 0.056 3.58141 0.01 3.38542
4 0.078 3.63487 0.01 3.38542
5 0.1 2.93997 0.1 2.93997
6 0.12 3.02906 0.12 3.02906
7 0.47 3.74177 0.47 3.74177
8 5.29 2.62904 5.29 2.62904
9 0.046 0.400014 0.046 0.400014
10 0.1521 3.15057 0.1521 3.15057
11 0.15 4.04468 0.15 4.04468
12 0.0469 2.42993 0.0469 2.42993

Bond Coeffs # harmonic

1 222.5 1.53
2 222.5 1.528
3 309 1.111
4 340 1.43
5 322 1.111
6 450 0.9572
7 540 1.448
8 250 1.575

Angle Coeffs # charmm

1 58.35 113.6 11.16 2.561
2 58 115 8 2.561
3 26.5 110.1 22.53 2.179
4 75.7 110.1 0 0
5 34.6 110.1 22.53 2.179
6 15 109 27 1.9
7 34.6 110.1 22.53 2.179
8 35.5 109 5.4 1.802
9 60 109.5 0 0
10 35.5 108.4 5.4 1.802
11 55 104.52 0 0
12 130 109.47 35 2.45
13 85 98 0 0

Dihedral Coeffs # charmmfsw

1 0.101 2 0 1
2 0.142 3 180 0
3 0.074 4 0 0
4 0.097 5 0 0
5 0.162 2 0 1
6 0.047 3 180 0
7 0.105 4 0 0
8 0.177 5 0 0
9 0.19 3 0 1
10 0 3 0 1
11 0.16 3 0 1
12 0 3 0 1
13 0 3 0 1
14 0.19 3 0 1
15 0.19 3 0 1
16 0.19 3 0 1
17 0.16 3 0 1
18 0 3 0 1

Atoms # full

1 1 8 0.0000000000000000e+00 -1.3296193488493509e+01 -5.6665046291937768e+00 -5.9867125178845129e+00 0 0 0
2 2 8 0.0000000000000000e+00 -1.2478257317603898e+01 -4.4797176740843998e+00 -3.3306687093271878e+00 0 0 0
3 3 8 0.0000000000000000e+00 -1.1322191582281288e+01 -6.9209878711691966e+00 -4.3319790694750280e+00 0 0 0
4 4 8 0.0000000000000000e+00 -1.0575929559117050e+01 -4.6694954704215386e+00 -6.2168009202234131e+00 0 0 0
5 5 8 0.0000000000000000e+00 -1.3956527999349804e+01 -7.1076451550083197e+00 -3.3585570394466226e+00 0 0 0
6 6 8 0.0000000000000000e+00 -1.4430694610483128e+01 -5.1966774962261040e+00 -1.3299461200393068e+00 0 0 0
7 7 8 0.0000000000000000e+00 -1.1844495488971276e+01 -6.6542725274473229e+00 -1.5638904236514242e+00 0 0 0
17 17 8 0.0000000000000000e+00 -1.3766273566303076e+01 -3.2512606735159988e+00 -7.2921900781946194e+00 0 0 0
18 18 8 0.0000000000000000e+00 -1.2158445736170876e+01 -2.2212782082823868e+00 -5.2309746788433698e+00 0 0 0
19 19 8 0.0000000000000000e+00 -9.8928998455339805e+00 -3.1671819051311307e+00 -3.8090504133909979e+00 0 0 0
21 21 8 0.0000000000000000e+00 -1.4649237279155177e+01 -2.6559050139074154e+00 -3.9736600860362268e+00 0 0 0
23 23 8 0.0000000000000000e+00 -1.2151078823837592e+01 -1.6224285531183993e+00 -2.4914177958911021e+00 0 0 0
24 24 8 0.0000000000000000e+00 -1.0239601201447604e+01 -4.2139140831425659e-01 -4.1113238847895239e+00 0 0 0
174 260 10 -8.3399999999999996e-01 -1.7353735997024881e+01 -3.2090959106681209e+00 -6.2422549042858408e+00 0 0 0
175 260 9 4.1699999999999998e-01 -1.7859136492577868e+01 -3.6729411876149998e+00 -6.9098235915111683e+00 0 0 0
176 260 9 4.1699999999999998e-01 -1.8013125519723602e+01 -2.8488738445784394e+00 -5.6492313039173023e+00 0 0 0
177 261 10 -8.3399999999999996e-01 -1.5908821647463464e+01 -5.0235532164956140e+00 -4.8847515455085011e+00 0 0 0
178 261 9 4.1699999999999998e-01 -1.5176745847888098e+01 -4.6062363816255631e+00 -4.4307221895595088e+00 0 0 0
179 261 9 4.1699999999999998e-01 -1.6284876522483525e+01 -4.3277497202235020e+00 -5.4238910640176723e+00 0 0 0
180 262 10 -8.3399999999999996e-01 -1.7756473125867636e+01 -1.4917936021307399e+00 -3.9321815602766446e+00 0 0 0
181 262 9 4.1699999999999998e-01 -1.7130756722504369e+01 -1.1598898372375077e+00 -4.5760355099182570e+00 0 0 0
184 263 9 4.1699999999999998e-01 -1.6184220528970187e+01 -4.5914081989909370e+00 -8.7155286513253633e-02 0 0 0
185 263 9 4.1699999999999998e-01 -1.7028268409001683e+01 -4.9315392999225551e+00 1.1227157868278921e+00 0 0 0
186 264 10 -8.3399999999999996e-01 -1.6841106172496310e+01 -3.4226219147593833e+00 -2.0146383082376627e+00 0 0 0
187 264 9 4.1699999999999998e-01 -1.7181993217357309e+01 -2.8558350619225963e+00 -2.7065776257088823e+00 0 0 0
188 264 9 4.1699999999999998e-01 -1.6462705222769713e+01 -2.8194120358041119e+00 -1.3749650936159927e+00 0 0 0
219 275 10 -8.3399999999999996e-01 -1.6767066383617330e+01 -7.0249563031527684e-01 -9.8605808097741265e-01 0 0 0
252 286 10 -8.3399999999999996e-01 -1.6361021496801104e+01 7.0634317950418506e+00 -6.0367177283489921e+00 0 0 0
254 286 9 4.1699999999999998e-01 -1.5793165945440164e+01 -6.9860073073371902e+00 -5.8383707484777139e+00 0 1 0
12 12 8 0.0000000000000000e+00 -1.1956131251230239e+01 -3.7838504915269580e+00 -6.4258888251741697e-01 0 0 0
25 25 8 0.0000000000000000e+00 -1.4349991806786873e+01 -2.3187947956840729e+00 -7.0445801582057632e-01 0 0 0
194 266 9 4.1699999999999998e-01 -1.9592082606251854e+01 -5.1998091162199609e+00 1.5246472721356257e+00 0 0 0
695 434 9 4.1699999999999998e-01 -1.9221945336715201e+01 7.3262776682686876e+00 -1.7258345341881423e+00 1 0 0
613 407 10 -8.3399999999999996e-01 -1.8213303546638269e+01 -5.8624724721687071e+00 -3.3309678116659178e+00 1 0 0
220 275 9 4.1699999999999998e-01 -1.7700148384833312e+01 -6.2797821026060863e-01 -1.1861475893069109e+00 0 0 0
182 262 9 4.1699999999999998e-01 -1.8079690455971154e+01 -7.0904767321401663e-01 -3.4860103324754319e+00 0 0 0
361 322 9 4.1699999999999998e-01 -1.3756452704471142e-01 -5.1164259477118401e+00 -6.7734997020240986e+00 0 0 0
259 288 9 4.1699999999999998e-01 -1.5333780361221214e+01 6.7704600976973124e+00 -1.8217708571060565e+00 0 0 0
694 434 10 -8.3399999999999996e-01 -1.8793386990218860e+01 6.6208832552334922e+00 -1.2410793446618804e+00 1 0 0
614 407 9 4.1699999999999998e-01 -1.7800955932282150e+01 -5.1298205878172620e+00 -2.8733421366931613e+00 1 0 0
699 435 9 4.1699999999999998e-01 -1.9460029191568953e+01 5.0607871463151506e+00 1.4894181808084963e+00 1 0 0
86 86 8 0.0000000000000000e+00 -9.8984841638341265e+00 -2.0957801974114147e+00 -9.8241061280974051e-01 0 0 0
8 8 8 0.0000000000000000e+00 -9.5408561356328345e+00 -5.0967695976425569e+00 -1.7328626416298629e+00 0 0 0
397 334 9 4.1699999999999998e-01 -1.0341462504686823e-01 -2.2008203488760092e+00 -2.0608129762614373e+00 0 0 0
20 20 8 0.0000000000000000e+00 -9.6307799021056315e+00 -1.4917252287047558e+00 -6.5014096525674905e+00 0 0 0
65 65 8 0.0000000000000000e+00 -8.3297556612165700e+00 -6.3920467934542726e+00 -7.0048117264973522e+00 0 0 0
66 66 8 0.0000000000000000e+00 -8.7865138513575207e+00 -5.7182710508200341e+00 -4.4303391655846642e+00 0 0 0
67 67 8 0.0000000000000000e+00 -5.9563133333452134e+00 -6.5548774720674867e+00 -5.2358122513000707e+00 0 0 0
70 70 8 0.0000000000000000e+00 -6.7468267234404156e+00 -5.9789221332808626e+00 -2.4833903663076757e+00 0 0 0
72 72 8 0.0000000000000000e+00 -4.0878865246739888e+00 -7.2550561119907062e+00 -2.9934772708817765e+00 0 0 0
81 81 8 0.0000000000000000e+00 -7.9101218181979007e+00 -3.6528445683806159e+00 -6.2306883835384408e+00 0 0 0
82 82 8 0.0000000000000000e+00 -7.6894742284839630e+00 -1.4435503777073297e+00 -4.3722994425564181e+00 0 0 0
83 83 8 0.0000000000000000e+00 -5.9658430513757184e+00 -4.0260241636759009e+00 -4.2716189419531547e+00 0 0 0
84 84 8 0.0000000000000000e+00 -5.7117752231949606e+00 -1.8157810686993456e+00 -6.4761890721662523e+00 0 0 0
85 85 8 0.0000000000000000e+00 -7.4771981849045455e+00 -3.2641580938212735e+00 -2.0646977051245741e+00 0 0 0
88 88 8 0.0000000000000000e+00 -5.3181765563475567e+00 -1.5657732258950559e+00 -2.9827776817810161e+00 0 0 0
279 295 10 -8.3399999999999996e-01 -1.6545025165805771e+00 -6.3589164977148274e+00 -5.1818580826973504e+00 0 0 0
280 295 9 4.1699999999999998e-01 -2.1846372548237385e+00 -6.4058982761596033e+00 -5.9774588840434442e+00 0 0 0
281 295 9 4.1699999999999998e-01 -1.8372524756236477e+00 -5.4907098132011987e+00 -4.8226218018859353e+00 0 0 0
282 296 10 -8.3399999999999996e-01 -2.9525063373823919e+00 -4.0676186943535084e+00 -4.5626958205767334e+00 0 0 0
284 296 9 4.1699999999999998e-01 -2.9034286434520817e+00 -4.1237465887222013e+00 -3.6084042068301416e+00 0 0 0
288 298 10 -8.3399999999999996e-01 -2.6921627291076144e+00 -1.3047470160784480e+00 -4.6703888625038514e+00 0 0 0
289 298 9 4.1699999999999998e-01 -2.9292021420234886e+00 -1.2785325804395797e+00 -5.5974036927261093e+00 0 0 0
290 298 9 4.1699999999999998e-01 -2.5559394870164205e+00 -2.2336266747466929e+00 -4.4836869171236478e+00 0 0 0
291 299 10 -8.3399999999999996e-01 -3.0241529740450774e+00 -6.6997542541664643e+00 -1.0667419219651798e-01 0 0 0
312 306 10 -8.3399999999999996e-01 -3.5091025485042815e+00 -3.6198903638319866e+00 -1.8414580911029574e+00 0 0 0
314 306 9 4.1699999999999998e-01 -2.7809638787022974e+00 -2.9993807509593813e+00 -1.8732680257107048e+00 0 0 0
101 101 8 0.0000000000000000e+00 -7.6359604240468970e+00 -4.5836945820432712e-01 -1.4355397240058980e+00 0 0 0
313 306 9 4.1699999999999998e-01 -3.7353458485130187e+00 -3.6770223742774237e+00 -9.1313804845062518e-01 0 0 0
371 325 9 4.1699999999999998e-01 -1.6320066186578979e+00 -6.5986432789376623e+00 -2.5889628551470647e+00 0 0 0
369 325 10 -8.3399999999999996e-01 -1.1672643284984978e+00 -6.0137814558361553e+00 -1.9904792828684512e+00 0 0 0
398 334 9 4.1699999999999998e-01 -8.9971952320588877e-01 -9.8487595466494304e-01 -1.6374069932855504e+00 0 0 0
396 334 10 -8.3399999999999996e-01 -9.9985005558385087e-01 -1.8844672871258288e+00 -1.9487597453123566e+00 0 0 0
283 296 9 4.1699999999999998e-01 -3.8005453953998316e+00 -3.6588270998695194e+00 -4.7357570269275691e+00 0 0 0
222 276 10 -8.3399999999999996e-01 -1.9535847690078391e+01 -6.1645199576077048e-01 -1.3366727000039804e+00 0 0 0
370 325 9 4.1699999999999998e-01 -1.6895834608578753e+00 -6.0266740989533325e+00 -1.1884517750763390e+00 0 0 0
392 332 9 4.1699999999999998e-01 -1.1450370931975942e-01 -3.9280162487866481e+00 -4.2271384640050940e+00 0 0 0
293 299 9 4.1699999999999998e-01 -3.8430250072789836e+00 -7.1524719349459103e+00 -3.0847980552714904e-01 0 0 0
92 92 8 0.0000000000000000e+00 -3.8207728783877637e+00 -1.0949558342558450e-02 -1.1800766021514346e+00 0 0 0
76 76 8 0.0000000000000000e+00 -5.5732913954271517e+00 -4.9278841695906799e+00 -1.4969062406665104e-01 0 0 0
615 407 9 4.1699999999999998e-01 -1.7591881582218452e+01 -6.0947732389963667e+00 -4.0209691193256738e+00 1 0 0
237 281 10 -8.3399999999999996e-01 -1.5872128932169876e+01 -7.1032107295426375e-02 -5.3968757461124230e+00 0 0 1
239 281 9 4.1699999999999998e-01 -1.6015852993798575e+01 2.8144045575122056e-01 -6.2751339887016044e+00 0 0 1
213 273 10 -8.3399999999999996e-01 -1.7078428651021298e+01 1.6392231024387223e+00 -2.2036551770262340e+00 0 0 0
221 275 9 4.1699999999999998e-01 -1.6390656239964002e+01 1.2524124393673614e-01 -1.2850514224752405e+00 0 0 0
696 434 9 4.1699999999999998e-01 -1.7866620066316809e+01 6.8603106283530062e+00 -1.2381249976022914e+00 1 0 0
22 22 8 0.0000000000000000e+00 -1.4196702255573580e+01 2.9426272328629965e-01 -1.8841734646049539e+00 0 0 0
214 273 9 4.1699999999999998e-01 -1.7630671758784608e+01 2.4204027784118503e+00 -2.1718011669941819e+00 0 0 0
215 273 9 4.1699999999999998e-01 -1.6465716220614457e+01 1.8074998123416959e+00 -2.9195449891527177e+00 0 0 0
33 33 8 0.0000000000000000e+00 -1.3751948687138304e+01 9.4892576701793274e-01 -7.3399322449086686e+00 0 0 0
34 34 8 0.0000000000000000e+00 -1.3181377241565954e+01 3.1393018843959823e+00 -5.3776938543222048e+00 0 0 0
35 35 8 0.0000000000000000e+00 -1.1006341552102967e+01 1.1547187050342902e+00 -6.6376268097197260e+00 0 0 0
37 37 8 0.0000000000000000e+00 -1.2877202578493785e+01 3.5177913093571517e-01 -4.3898129867509246e+00 0 0 0
38 38 8 0.0000000000000000e+00 -1.2757561299713847e+01 2.6300313498140002e+00 -2.4627121548242510e+00 0 0 0
39 39 8 0.0000000000000000e+00 -1.0571544588593365e+01 1.0288148921111004e+00 -1.6513288828805937e+00 0 0 0
40 40 8 0.0000000000000000e+00 -1.0709381882230307e+01 2.4444517766248990e+00 -4.2100285930949273e+00 0 0 0
50 50 8 0.0000000000000000e+00 -1.3358057724953809e+01 6.1548447574176688e+00 -5.6835310635221941e+00 0 0 0
51 51 8 0.0000000000000000e+00 -1.1017229429646125e+01 4.6002787134768601e+00 -6.3112825887337207e+00 0 0 0
52 52 8 0.0000000000000000e+00 -1.1022091572825941e+01 7.3570162365985237e+00 -7.0883585840631964e+00 0 0 0
53 53 8 0.0000000000000000e+00 -1.4416554571662418e+01 4.8705439985377819e+00 -3.2220922584666276e+00 0 0 0
54 54 8 0.0000000000000000e+00 -1.2897407338249872e+01 5.3795766997532217e+00 -8.3366234849173104e-01 0 0 0
55 55 8 0.0000000000000000e+00 -1.0419337504434967e+01 3.9434307169958984e+00 -1.2610755294493503e+00 0 0 0
56 56 8 0.0000000000000000e+00 -1.1607130990098810e+01 5.2010283538547197e+00 -3.5656803710861897e+00 0 0 0
211 272 9 4.1699999999999998e-01 -1.6307691577808043e+01 3.5746154163530948e+00 -4.5340027885362248e+00 0 0 0
249 285 10 -8.3399999999999996e-01 -1.7160545236617509e+01 5.1518715201698901e+00 -4.4385411983046597e+00 0 0 0
250 285 9 4.1699999999999998e-01 -1.6743746715208179e+01 5.8437749191216239e+00 -4.9521366921787040e+00 0 0 0
251 285 9 4.1699999999999998e-01 -1.7922734898587031e+01 4.8941137253760063e+00 -4.9570573105833580e+00 0 0 0
434 346 9 4.1699999999999998e-01 -2.7832349412508223e-01 5.4305008713501248e+00 5.3563349766540727e+00 0 0 0
258 288 10 -8.3399999999999996e-01 -1.5844161908375174e+01 7.1038177406422074e+00 -1.0837906428455799e+00 0 0 0
238 281 9 4.1699999999999998e-01 -1.5732259277215162e+01 7.0088494762759646e-01 -4.8484125533872771e+00 0 0 1
57 57 8 0.0000000000000000e+00 -1.4950308956485628e+01 3.1717599005431771e+00 -5.8093824324547594e-01 0 0 0
261 289 10 -8.3399999999999996e-01 -1.8663413071714526e+01 4.0129165438805581e+00 -2.4649385724502353e+00 0 0 0
262 289 9 4.1699999999999998e-01 -1.9005227918027003e+01 4.6635070042386095e+00 -1.8516477419020054e+00 0 0 0
263 289 9 4.1699999999999998e-01 -1.8157414917385996e+01 4.5223626546343887e+00 -3.0979157732431322e+00 0 0 0
682 430 10 -8.3399999999999996e-01 -1.9281028909824549e+01 3.9857407812254317e+00 -5.7542515359232720e+00 1 0 0
210 272 10 -8.3399999999999996e-01 -1.5939410880669943e+01 2.7075544076690257e+00 -4.7037249465888724e+00 0 0 0
212 272 9 4.1699999999999998e-01 -1.5698980455748512e+01 2.7260637012273929e+00 -5.6300522778584163e+00 0 0 0
260 288 9 4.1699999999999998e-01 -1.5458784888699533e+01 6.6823669550475664e+00 -3.1561396376070672e-01 0 0 0
698 435 9 4.1699999999999998e-01 -1.9571226503422313e+01 5.6627804522918019e+00 1.0481286477759554e-01 1 0 0
327 311 10 -8.3399999999999996e-01 -5.8426546820415759e-01 3.5866422500699424e+00 -4.0668461305063675e+00 0 0 0
341 315 9 4.1699999999999998e-01 -1.4959283642433312e+00 5.7260172998169834e+00 -1.5855497011624626e+00 0 0 0
285 297 10 -8.3399999999999996e-01 -1.3105603584097607e+00 6.0996903825029927e+00 -3.2696076002942012e+00 0 -1 0
286 297 9 4.1699999999999998e-01 -8.2682944851247941e-01 5.3279637736927974e+00 -3.5640124426004101e+00 0 -1 0
287 297 9 4.1699999999999998e-01 -1.2375394271146778e+00 6.7198748801049559e+00 -3.9950528484925512e+00 0 -1 0
69 69 8 0.0000000000000000e+00 -9.3587263471539544e+00 6.9115569909380277e+00 -2.4980595596120083e+00 0 -1 0
71 71 8 0.0000000000000000e+00 -5.7196539581354067e+00 6.8687566483557116e+00 -5.6283282011678126e-01 0 -1 0
359 321 9 4.1699999999999998e-01 -2.7459310206987637e+00 4.7729015190779771e+00 6.7831226910700471e+00 0 0 0
97 97 8 0.0000000000000000e+00 -7.8561715480024841e+00 6.0080846508694363e-01 -6.4350835771666581e+00 0 0 0
98 98 8 0.0000000000000000e+00 -8.2214017896933829e+00 1.4323112142324403e+00 -3.5043488851688238e+00 0 0 0
99 99 8 0.0000000000000000e+00 -5.6258634003395596e+00 5.5963862492759853e-01 -4.8590892058177095e+00 0 0 0
100 100 8 0.0000000000000000e+00 -5.6386186550069208e+00 2.5590038582145227e+00 -7.1164247764352382e+00 0 0 0
102 102 8 0.0000000000000000e+00 -8.2774217796081544e+00 2.2831899041992947e+00 -5.1934428926940113e-01 0 0 0
104 104 8 0.0000000000000000e+00 -5.9517654486270839e+00 1.7133925865057660e+00 -1.8796066022528983e+00 0 0 0
113 113 8 0.0000000000000000e+00 -8.4253600650381522e+00 3.2616854572500000e+00 -6.2910758165624605e+00 0 0 0
114 114 8 0.0000000000000000e+00 -9.1148753530526410e+00 6.2172673826221159e+00 -5.3328132710886225e+00 0 0 0
115 115 8 0.0000000000000000e+00 -6.2122083915418393e+00 3.3360797782015936e+00 -4.2688497146928519e+00 0 0 0
116 116 8 0.0000000000000000e+00 -6.5389626247528607e+00 5.5033495202671432e+00 -6.2143983969345671e+00 0 0 0
117 117 8 0.0000000000000000e+00 -8.8168590689403530e+00 4.2263322699183670e+00 -3.4708285641566174e+00 0 0 0
118 118 8 0.0000000000000000e+00 -7.8137110027983399e+00 5.1504401901861181e+00 -1.0326353950890659e+00 0 0 0
119 119 8 0.0000000000000000e+00 -4.7068719800599785e+00 4.7131610418184273e+00 -1.9126067770442119e+00 0 0 0
120 120 8 0.0000000000000000e+00 -6.6667596280412944e+00 6.1496903926894273e+00 -3.4589398074115780e+00 0 0 0
315 307 10 -8.3399999999999996e-01 -2.5916303558639302e+00 1.4855980773334871e+00 -4.1781277071064347e+00 0 0 0
316 307 9 4.1699999999999998e-01 -2.7269336854626700e+00 5.3807808432995086e-01 -4.1895539469393173e+00 0 0 0
317 307 9 4.1699999999999998e-01 -2.5341033066607146e+00 1.7086189620974064e+00 -3.2490523554888471e+00 0 0 0
324 310 10 -8.3399999999999996e-01 -2.2021127191837944e+00 1.4314816707835494e+00 -6.9714625212465320e+00 0 0 0
325 310 9 4.1699999999999998e-01 -2.2520216455096058e+00 1.7010359862034836e+00 -6.0543576433153925e+00 0 0 0
326 310 9 4.1699999999999998e-01 -2.2934690681621648e+00 4.7896697647743308e-01 -6.9469514157811716e+00 0 0 0
329 311 9 4.1699999999999998e-01 -1.1195823838571315e+00 2.7932404495972571e+00 -4.0802919550122807e+00 0 0 0
333 313 10 -8.3399999999999996e-01 -3.2372839924158736e+00 4.9869835671098297e+00 -5.2337449175921185e+00 0 0 0
334 313 9 4.1699999999999998e-01 -3.3946341504844852e+00 4.0470809029285491e+00 -5.1439990722209474e+00 0 0 0
335 313 9 4.1699999999999998e-01 -2.9088567087606507e+00 5.2582513927961614e+00 -4.3765525412376309e+00 0 0 0
336 314 10 -8.3399999999999996e-01 -2.3164716988385563e+00 2.6235097522153961e+00 -1.5404862762276021e+00 0 0 0
337 314 9 4.1699999999999998e-01 -2.0189375708851758e+00 3.5274071956890078e+00 -1.4371759252632392e+00 0 0 0
338 314 9 4.1699999999999998e-01 -2.8975172514382477e+00 2.4753583015680061e+00 -7.9438523253826343e-01 0 0 0
339 315 10 -8.3399999999999996e-01 -1.5309602882419533e+00 5.6429425612421937e+00 -6.3260774399177500e-01 0 0 0
340 315 9 4.1699999999999998e-01 -2.0293003043179723e+00 6.4072385938911562e+00 -3.4324055558031241e-01 0 0 0
136 129 1 8.9999999999999997e-02 -7.2453055782499021e-01 -2.2410413265616489e+00 3.0660052952351626e+00 0 0 0
307 304 9 4.1699999999999998e-01 -1.2756573819149872e+00 1.2853356581336524e+00 -1.4071567865283128e+00 0 0 0
306 304 10 -8.3399999999999996e-01 -5.3164470979493661e-01 6.9358882576466074e-01 -1.5190157404694036e+00 0 0 0
328 311 9 4.1699999999999998e-01 -8.7325986274197825e-02 3.5547378144390200e+00 -4.8843207470711167e+00 0 0 0
183 263 10 -8.3399999999999996e-01 -1.6291201824140650e+01 -4.3890319148231711e+00 8.4226929974809750e-01 0 0 0
253 286 9 4.1699999999999998e-01 -1.7134248080713920e+01 -7.3407753061091130e+00 -6.4446143635592428e+00 0 1 0
266 290 9 4.1699999999999998e-01 -1.7470008620905983e+01 4.5697499206351626e+00 1.9018269213476040e+00 0 0 0
204 270 10 -8.3399999999999996e-01 -1.8009398574775801e+01 -4.5715995710761907e+00 6.2527714688684686e+00 0 0 0
206 270 9 4.1699999999999998e-01 -1.8154680854473746e+01 -3.7627526489905994e+00 5.7619656518054390e+00 0 0 0
171 259 10 -8.3399999999999996e-01 -1.8766181430526501e+01 -6.5668908064853682e+00 -6.7823072267194986e+00 0 0 0
172 259 9 4.1699999999999998e-01 -1.8883158295221214e+01 -5.6490321479477181e+00 -7.0274249205765527e+00 0 0 0
9 9 8 0.0000000000000000e+00 -1.3193851943359713e+01 -6.9245683752530205e+00 8.4867378613863909e-01 0 0 0
10 10 8 0.0000000000000000e+00 -1.3234117658760143e+01 -4.4421316551580281e+00 2.0764288313509605e+00 0 0 0
11 11 8 0.0000000000000000e+00 -1.0625695560933027e+01 -5.5969987813900692e+00 1.0078869684476002e+00 0 0 0
13 13 8 0.0000000000000000e+00 -1.2590018131583005e+01 -6.9234257078337071e+00 3.7284793493803918e+00 0 0 0
14 14 8 0.0000000000000000e+00 -1.2111810822673696e+01 -5.3271591685064283e+00 6.1464970498274951e+00 0 0 0
16 16 8 0.0000000000000000e+00 -1.0801864653145527e+01 -4.7335846181493508e+00 3.5786190408512062e+00 0 0 0
26 26 8 0.0000000000000000e+00 -1.3759553073008076e+01 -1.7209739764889775e+00 2.2066961206327544e+00 0 0 0
27 27 8 0.0000000000000000e+00 -1.0853672659493895e+01 -2.6306761569190269e+00 1.6909377306050217e+00 0 0 0
28 28 8 0.0000000000000000e+00 -1.2261600223128250e+01 -6.0611492303181058e-01 3.4336665582212503e-02 0 0 0
29 29 8 0.0000000000000000e+00 -1.2822005126530575e+01 -3.0364335609311079e+00 4.5012207973386689e+00 0 0 0
30 30 8 0.0000000000000000e+00 -1.1959490960661482e+01 -1.2529981058136004e+00 6.7831912720185192e+00 0 0 0
31 31 8 0.0000000000000000e+00 -1.0234343504052235e+01 -3.2778174816272445e+00 5.8481822083726778e+00 0 0 0
32 32 8 0.0000000000000000e+00 -1.0686313371194951e+01 -1.0472441646607953e+00 3.9068887868073965e+00 0 0 0
189 265 10 -8.3399999999999996e-01 -1.5627890816451268e+01 -6.5127168691724568e+00 2.6666093017419525e+00 0 0 0
190 265 9 4.1699999999999998e-01 -1.5093478491570094e+01 -5.8961718681384845e+00 3.1671156830077556e+00 0 0 0
191 265 9 4.1699999999999998e-01 -1.5858535084508578e+01 -6.0374126119902298e+00 1.8684113209967790e+00 0 0 0
198 268 10 -8.3399999999999996e-01 -1.6146810209018195e+01 -3.2329080981434810e+00 4.4277987249768191e+00 0 0 0
199 268 9 4.1699999999999998e-01 -1.6661601945229933e+01 -2.9093213456206719e+00 3.6885344442834622e+00 0 0 0
200 268 9 4.1699999999999998e-01 -1.6136042784453846e+01 -2.5052210706434090e+00 5.0495581090727271e+00 0 0 0
201 269 10 -8.3399999999999996e-01 -1.5127635836976044e+01 -5.3300153987276238e+00 5.7678543591153817e+00 0 0 0
202 269 9 4.1699999999999998e-01 -1.4738288165517464e+01 -4.7419849194951667e+00 6.4150483869296080e+00 0 0 0
203 269 9 4.1699999999999998e-01 -1.5555740250517337e+01 -4.7470990830580702e+00 5.1408278396818972e+00 0 0 0
225 277 10 -8.3399999999999996e-01 -1.6770260327484834e+01 -1.7110106676568959e+00 1.7753891941583178e+00 0 0 0
226 277 9 4.1699999999999998e-01 -1.6504777342350526e+01 -2.5817391887040166e+00 1.4794467131449298e+00 0 0 0
227 277 9 4.1699999999999998e-01 -1.6791581382043052e+01 -1.1825346874753031e+00 9.7758599268170165e-01 0 0 0
232 279 9 4.1699999999999998e-01 -1.9509080311495751e+01 -2.0115667027315212e+00 3.3395953528428333e+00 0 0 0
45 45 8 0.0000000000000000e+00 -1.4173813085733434e+01 -5.4567328728129361e-01 4.7609964405203007e+00 0 0 0
240 282 10 -8.3399999999999996e-01 -1.6712061883385562e+01 -1.2267255865190299e+00 6.1436940925015726e+00 0 0 0
242 282 9 4.1699999999999998e-01 -1.6504166932241773e+01 -3.4112933907522663e-01 6.4415704160721008e+00 0 0 0
265 290 9 4.1699999999999998e-01 -1.8289007571586964e+01 4.3090698050462883e+00 3.1480931404011225e+00 0 0 0
264 290 10 -8.3399999999999996e-01 -1.8019330975855709e+01 5.0077222617786976e+00 2.5519470289865440e+00 0 0 0
278 294 9 4.1699999999999998e-01 -1.6877492611666572e+01 7.0993126075788959e+00 5.9400252343866340e+00 0 0 0
205 270 9 4.1699999999999998e-01 -1.7236128553427935e+01 -4.9631642426641189e+00 5.8466173022499310e+00 0 0 0
192 266 10 -8.3399999999999996e-01 -1.9091126996773284e+01 -5.3787723485284173e+00 7.2887951910310711e-01 0 0 0
292 299 9 4.1699999999999998e-01 -3.2798612138396934e+00 -5.9952134982690044e+00 4.8869587910146722e-01 0 0 0
310 305 9 4.1699999999999998e-01 -2.4975117755128293e+00 -1.0144724232714877e+00 6.4512400803788275e+00 0 0 -1
68 68 8 0.0000000000000000e+00 -5.4784263889167795e+00 -4.4819436716999235e+00 -7.2908353250251610e+00 0 0 0
386 330 9 4.1699999999999998e-01 -6.2880401606796887e-01 -2.4053704245166125e+00 6.5765134529912741e+00 0 0 0
409 338 9 4.1699999999999998e-01 -1.9958783814654588e+00 -9.8112174379088324e-01 2.1406789646528139e+00 0 0 -1
410 338 9 4.1699999999999998e-01 -2.8793141762585774e+00 -4.9220435502503329e-01 1.0126762291675633e+00 0 0 -1
87 87 8 0.0000000000000000e+00 -5.5918430374224100e+00 -2.1278149055287261e+00 -1.0725635069819247e-02 0 0 0
309 305 10 -8.3399999999999996e-01 -2.6446079518357024e+00 -1.4565955321764856e+00 7.2873750284731011e+00 0 0 -1
707 438 9 4.1699999999999998e-01 -1.9614744454665555e+01 7.3127915492049862e+00 3.4521115739477963e+00 1 0 0
311 305 9 4.1699999999999998e-01 -2.8993731972618044e+00 -2.3472318453359855e+00 7.0463492590266084e+00 0 0 -1
134 129 3 -2.8000000000000003e-01 -4.2205278336516039e-01 -3.2733211521020964e+00 2.7881104744756349e+00 0 0 0
130 129 5 -2.8000000000000003e-01 -1.2200140642447266e+00 -3.8627789956463623e+00 1.6882293253587790e+00 0 0 0
15 15 8 0.0000000000000000e+00 -9.7050674502318603e+00 -6.5725018175130581e+00 5.3235397991749478e+00 0 0 0
73 73 8 0.0000000000000000e+00 -8.0305820986199912e+00 -6.6293933892709136e+00 2.7482073124344636e-03 0 0 0
74 74 8 0.0000000000000000e+00 -8.3121805381471479e+00 -5.7149396940941770e+00 2.9333554051157114e+00 0 0 0
75 75 8 0.0000000000000000e+00 -5.7774314098481456e+00 -6.8496488994569038e+00 2.0169897687212122e+00 0 0 0
78 78 8 0.0000000000000000e+00 -7.5647193126160470e+00 -4.7067267345143700e+00 5.5210715019435428e+00 0 0 0
80 80 8 0.0000000000000000e+00 -4.9763995613055707e+00 -5.4921703693363932e+00 4.4045515260241856e+00 0 0 0
89 89 8 0.0000000000000000e+00 -8.4110095628389345e+00 -3.8250886117523990e+00 7.2787204495214264e-01 0 0 0
90 90 8 0.0000000000000000e+00 -8.1652063174881242e+00 -1.0286169381369226e+00 1.2599568856697243e+00 0 0 0
91 91 8 0.0000000000000000e+00 -6.0411640022045292e+00 -3.9028439321573667e+00 2.3875107227465100e+00 0 0 0
93 93 8 0.0000000000000000e+00 -8.4406174116875281e+00 -2.8984499789829941e+00 3.5114726078785234e+00 0 0 0
94 94 8 0.0000000000000000e+00 -7.6615084513312297e+00 -2.0165689984947912e+00 6.2622991382725415e+00 0 0 0
95 95 8 0.0000000000000000e+00 -5.2280894137600029e+00 -2.8921198266632651e+00 5.1064720855430519e+00 0 0 0
96 96 8 0.0000000000000000e+00 -5.2471552228884590e+00 -1.1764020948635856e+00 2.7813436612435063e+00 0 0 0
129 129 7 1.3300000000000001e+00 -2.7217583340793103e+00 -3.8663801985766666e+00 2.1252417577480216e+00 0 0 0
132 129 6 -6.5000000000000002e-01 -2.8805135339092507e+00 -3.1433138992072265e+00 3.3171022345634542e+00 0 0 0
133 129 6 -6.5000000000000002e-01 -2.9947717945920949e+00 -5.2694296088558383e+00 2.2087795238381469e+00 0 0 0
298 301 9 4.1699999999999998e-01 -2.0151013681140393e+00 -6.9050841393414970e+00 2.5979174908385003e+00 0 0 0
300 302 10 -8.3399999999999996e-01 -3.0938173059351173e+00 -6.4180481366307900e+00 6.6031002069145499e+00 0 0 0
301 302 9 4.1699999999999998e-01 -4.0447214741295463e+00 -6.4925129597093569e+00 6.5226775417147662e+00 0 0 0
303 303 10 -8.3399999999999996e-01 -2.1924123367155621e+00 -3.8258795628427817e+00 5.9742516676970467e+00 0 0 0
304 303 9 4.1699999999999998e-01 -2.2208688141475958e+00 -3.5735890709763289e+00 5.0513370727701963e+00 0 0 0
305 303 9 4.1699999999999998e-01 -2.7456304982387048e+00 -4.6052249254248601e+00 6.0271669748807497e+00 0 0 0
109 109 8 0.0000000000000000e+00 -7.7346649883403886e+00 -1.9127708396752560e-01 3.9590364910799098e+00 0 0 0
131 129 6 -6.5000000000000002e-01 -3.2805601035158674e+00 -3.2244447547943289e+00 9.5882424946346223e-01 0 0 0
712 440 10 -8.3399999999999996e-01 -1.9641262528302509e+01 1.8083876102596053e+00 7.2719617679883548e+00 1 0 0
321 309 10 -8.3399999999999996e-01 -2.6984904805518104e+00 1.1237847794972511e-01 4.8571094247116688e+00 0 0 0
323 309 9 4.1699999999999998e-01 -2.6484229807121946e+00 -2.0040705662855812e-01 3.9538434334187111e+00 0 0 0
322 309 9 4.1699999999999998e-01 -2.9351014425165700e+00 1.0365181592189261e+00 4.7782964804243342e+00 0 0 0
408 338 10 -8.3399999999999996e-01 -2.5562587841052871e+00 -2.5000200035704456e-01 1.8805488589090629e+00 0 0 -1
79 79 8 0.0000000000000000e+00 -5.8776725332049455e+00 -7.1958145871653842e+00 6.6628411146362785e+00 0 0 0
297 301 10 -8.3399999999999996e-01 -1.4025665081290131e+00 7.1551399452808795e+00 2.5474520919194621e+00 0 -1 0
299 301 9 4.1699999999999998e-01 -5.6399963107653595e-01 -7.2364303059764223e+00 2.3214971906673108e+00 0 0 0
231 279 10 -8.3399999999999996e-01 -1.9020660624264618e+01 -2.7859304526082100e+00 3.0602428695212542e+00 0 0 0
672 426 9 4.1699999999999998e-01 -1.9239982813726833e+01 2.1745251053295758e+00 4.1744638546257751e-01 1 0 0
47 47 8 0.0000000000000000e+00 -9.4804236916093387e+00 2.2469020620857330e-01 6.1021451850737947e+00 0 0 0
320 308 9 4.1699999999999998e-01 -8.7811715359707820e-01 6.1777209712632197e-01 5.6196478669252947e+00 0 0 0
248 284 9 4.1699999999999998e-01 -1.6518026138698456e+01 4.5083166252485629e+00 7.0123615654892228e+00 0 0 -1
241 282 9 4.1699999999999998e-01 -1.6762878695857189e+01 -1.7444494006159201e+00 6.9471922030039277e+00 0 0 0
352 319 9 4.1699999999999998e-01 -1.1290603378377146e+00 6.1562853471224033e+00 7.1700625832731051e+00 0 0 0
277 294 9 4.1699999999999998e-01 -1.6898619082145451e+01 6.2453152741371181e+00 4.6901716038973689e+00 0 0 0
246 284 10 -8.3399999999999996e-01 -1.5964773310255536e+01 4.2481645225035587e+00 -7.0451572888944316e+00 0 0 0
247 284 9 4.1699999999999998e-01 -1.5506683648834645e+01 5.0502458658492033e+00 -6.7940579687028411e+00 0 0 0
710 439 9 4.1699999999999998e-01 -1.6332033633154591e+01 2.2568967708085799e+00 7.3578161393723933e+00 1 0 0
135 129 1 8.9999999999999997e-02 -4.6180530262960290e-01 -3.8620114181623384e+00 3.7294841867426043e+00 0 0 0
711 439 9 4.1699999999999998e-01 -1.7695996951406244e+01 1.6330777418092970e+00 -7.2304369115015836e+00 1 0 1