LAMMPS data file via write_data, version 16 Mar 2018, timestep = 2500

1144 atoms
12 atom types
583 bonds
8 bond types
350 angles
13 angle types
132 dihedrals
18 dihedral types

-1.2328367000000000e+01 1.2328367000000000e+01 xlo xhi
-1.2328367000000000e+01 1.2328367000000000e+01 ylo yhi
-1.2328367000000000e+01 1.2328367000000000e+01 zlo zhi

Masses

1 1.008
2 1.008
3 12.011
4 12.011
5 15.9994
6 15.9994
7 32.06
8 196.966
9 1.008
10 15.9994
11 35.45
12 22.9898

Pair Coeffs # lj/charmmfsw/coul/long

1 0.028 2.38761 0.028 2.38761
2 0.024 2.38761 0.024 2.38761
3 0.056 3.58141 0.01 3.38542
4 0.078 3.63487 0.01 3.38542
5 0.1 2.93997 0.1 2.93997
6 0.12 3.02906 0.12 3.02906
7 0.47 3.74177 0.47 3.74177
8 5.29 2.62904 5.29 2.62904
9 0.046 0.400014 0.046 0.400014
10 0.1521 3.15057 0.1521 3.15057
11 0.15 4.04468 0.15 4.04468
12 0.0469 2.42993 0.0469 2.42993

Bond Coeffs # harmonic/omp

1 222.5 1.53
2 222.5 1.528
3 309 1.111
4 340 1.43
5 322 1.111
6 450 0.9572
7 540 1.448
8 250 1.575

Angle Coeffs # charmm/omp

1 58.35 113.6 11.16 2.561
2 58 115 8 2.561
3 26.5 110.1 22.53 2.179
4 75.7 110.1 0 0
5 34.6 110.1 22.53 2.179
6 15 109 27 1.9
7 34.6 110.1 22.53 2.179
8 35.5 109 5.4 1.802
9 60 109.5 0 0
10 35.5 108.4 5.4 1.802
11 55 104.52 0 0
12 130 109.47 35 2.45
13 85 98 0 0

Dihedral Coeffs # charmmfsw

1 0.101 2 0 1
2 0.142 3 180 0
3 0.074 4 0 0
4 0.097 5 0 0
5 0.162 2 0 1
6 0.047 3 180 0
7 0.105 4 0 0
8 0.177 5 0 0
9 0.19 3 0 1
10 0 3 0 1
11 0.16 3 0 1
12 0 3 0 1
13 0 3 0 1
14 0.19 3 0 1
15 0.19 3 0 1
16 0.19 3 0 1
17 0.16 3 0 1
18 0 3 0 1

Atoms # full

1 1 8 0.0000000000000000e+00 -8.3647529775378029e+00 -1.0696638475540889e+01 -1.1296063257093417e+01 0 0 0
2 2 8 0.0000000000000000e+00 -8.2056692607851200e+00 -8.5168712688911477e+00 -9.3245445165128231e+00 0 0 0
5 5 8 0.0000000000000000e+00 -8.4163483790453526e+00 -1.0644097909725305e+01 -7.2797958679133377e+00 0 0 0
6 6 8 0.0000000000000000e+00 -8.2501958682742522e+00 -8.5761403419157904e+00 -5.0506086545898157e+00 0 0 0
9 9 8 0.0000000000000000e+00 -8.4357199821816469e+00 -1.0629429348406607e+01 -2.9881472064397081e+00 0 0 0
10 10 8 0.0000000000000000e+00 -8.3665950488190397e+00 -8.4954242855501274e+00 -1.1683903080263198e+00 0 0 0
25 25 8 0.0000000000000000e+00 -8.1473328210642677e+00 -6.4051114279484835e+00 -1.1381892184581712e+01 0 0 0
26 26 8 0.0000000000000000e+00 -8.2057435306562230e+00 -4.3628566663135544e+00 -9.3840033467402275e+00 0 0 0
29 29 8 0.0000000000000000e+00 -8.2283677345129647e+00 -6.4557817511731859e+00 -7.1877251378022198e+00 0 0 0
30 30 8 0.0000000000000000e+00 -8.2215901853502409e+00 -4.2931374645490461e+00 -5.1591942944765998e+00 0 0 0
33 33 8 0.0000000000000000e+00 -8.3445616606148452e+00 -6.2775189179238060e+00 -3.1801208362741931e+00 0 0 0
34 34 8 0.0000000000000000e+00 -8.2030617506553067e+00 -4.4502401970079255e+00 -9.3382647170536803e-01 0 0 0
49 49 8 0.0000000000000000e+00 -8.0840982416437690e+00 -2.3562851492842745e+00 -1.1331311428053287e+01 0 0 0
50 50 8 0.0000000000000000e+00 -8.2963084062859416e+00 -3.0821917737702514e-01 -9.3247705969672143e+00 0 0 0
53 53 8 0.0000000000000000e+00 -8.2163328858735465e+00 -2.2640709837725050e+00 -7.1382968941565075e+00 0 0 0
54 54 8 0.0000000000000000e+00 -8.3422456796243996e+00 -2.7082330039478497e-01 -5.0336522154871561e+00 0 0 0
57 57 8 0.0000000000000000e+00 -8.3553508998580241e+00 -2.3578700785522959e+00 -2.9954231920076690e+00 0 0 0
58 58 8 0.0000000000000000e+00 -8.2445856909583437e+00 -3.2154503374734017e-01 -9.2787212741032399e-01 0 0 0
331 579 10 -8.3399999999999996e-01 -1.0711275758160465e+01 -1.0405140042937587e+01 -9.2268576766315125e+00 0 0 0
332 579 9 4.1699999999999998e-01 -1.0043572427432165e+01 -9.8409362223000834e+00 -8.8368855068777137e+00 0 0 0
339 581 9 4.1699999999999998e-01 -1.0716728298308787e+01 -9.9309968238846160e+00 -4.3513418913939041e+00 0 0 0
926 778 10 -8.3399999999999996e-01 -1.0804482133518109e+01 -6.0250051613060380e+00 -9.2873884171473726e+00 1 0 0
996 801 9 4.1699999999999998e-01 -1.0584174437900129e+01 -4.2212588015360979e-02 -6.6615407865836795e+00 1 0 0
875 761 10 -8.3399999999999996e-01 -1.0612354980328201e+01 -8.3392998897940931e+00 -7.6435672863083717e+00 1 0 0
337 581 10 -8.3399999999999996e-01 -1.0489535642940661e+01 -1.0477022463442720e+01 -5.1039850349010347e+00 0 0 0
338 581 9 4.1699999999999998e-01 -9.6043323965614977e+00 -1.0201340600277574e+01 -5.3419910268827469e+00 0 0 0
403 603 10 -8.3399999999999996e-01 -1.1060188285332863e+01 -4.8789290246921085e-01 -2.7520965216384021e+00 0 0 0
340 582 10 -8.3399999999999996e-01 -1.0940373397977787e+01 -8.6970540829870497e+00 -2.9128886782718966e+00 0 0 0
341 582 9 4.1699999999999998e-01 -1.1793242355570566e+01 -8.7923185209467150e+00 -3.3368837402226292e+00 0 0 0
344 583 9 4.1699999999999998e-01 -1.0802545771406345e+01 -1.0088722623154551e+01 -1.8320029982415531e+00 0 0 0
343 583 10 -8.3399999999999996e-01 -1.0932418024480310e+01 -1.0735126878548867e+01 -1.1380810320498398e+00 0 0 0
345 583 9 4.1699999999999998e-01 -1.1400966788867887e+01 -1.0259804769159423e+01 -4.5195857134022055e-01 0 0 0
397 601 10 -8.3399999999999996e-01 -1.0810614251541208e+01 -2.5213262493438831e+00 -4.9988796537760463e+00 0 0 0
927 778 9 4.1699999999999998e-01 -1.1059436264704198e+01 -5.4209607104863480e+00 -9.9847846915308267e+00 1 0 0
398 601 9 4.1699999999999998e-01 -1.0944798514179618e+01 -2.0753828398343765e+00 -4.1626015899240203e+00 0 0 0
1104 837 9 4.1699999999999998e-01 -1.1272291161508154e+01 -1.1626479040846966e+01 -6.4002227269881100e+00 1 1 0
876 761 9 4.1699999999999998e-01 -1.0794430463184973e+01 -7.9804924723785993e+00 -6.7750411029249094e+00 1 0 0
953 787 10 -8.3399999999999996e-01 -1.0734033086295916e+01 -2.5449147341253116e+00 -8.1903385375051274e-01 1 0 0
391 599 10 -8.3399999999999996e-01 -1.0761126164841146e+01 -2.5747842868733968e+00 -9.0745963950835620e+00 0 0 0
367 591 10 -8.3399999999999996e-01 -1.0988874172459841e+01 -6.4304595272803269e+00 -5.3022103917390595e+00 0 0 0
368 591 9 4.1699999999999998e-01 -1.1193812169863339e+01 -5.9252135529033279e+00 -4.5154709757424376e+00 0 0 0
997 801 9 4.1699999999999998e-01 -1.1888382940507753e+01 -6.0421711783773213e-01 -7.1860319732746625e+00 1 0 0
370 592 10 -8.3399999999999996e-01 -1.1508429364685410e+01 -4.6853651442515565e+00 -3.2724610665345666e+00 0 0 0
365 590 9 4.1699999999999998e-01 -1.2075613250375527e+01 -5.6644996639799441e+00 -1.2048975499699290e+01 0 0 0
373 593 10 -8.3399999999999996e-01 -1.0773695695723399e+01 -6.3533588534052114e+00 -6.5145370416840875e-01 0 0 0
342 582 9 4.1699999999999998e-01 -1.1022198042984479e+01 -7.9028059277634695e+00 -2.3849616939504030e+00 0 0 0
984 797 9 4.1699999999999998e-01 -1.1025339351301943e+01 -3.2046710163818166e-02 -1.1947227342922480e+01 1 0 0
393 599 9 4.1699999999999998e-01 -1.0729252900389518e+01 -1.8592509830596105e+00 -8.4395938859955884e+00 0 0 0
369 591 9 4.1699999999999998e-01 -1.1020455532230587e+01 -5.7905509187451480e+00 -6.0133725035772416e+00 0 0 0
334 580 10 -8.3399999999999996e-01 -1.0844320025483668e+01 -8.2789440088013624e+00 -1.0997739519567618e+01 0 0 0
877 761 9 4.1699999999999998e-01 -1.0301792691940896e+01 -7.5903560141529596e+00 -8.1523565783483392e+00 1 0 0
1113 840 9 4.1699999999999998e-01 -1.1016937839953576e+01 -1.2263544250111257e+01 -2.3229513549288634e+00 1 1 0
333 579 9 4.1699999999999998e-01 -1.1090911458286673e+01 -9.8774040423306992e+00 -9.9294267953267781e+00 0 0 0
937 781 9 4.1699999999999998e-01 -1.0545668341776018e+01 -3.5865827631882281e+00 -7.8427767398236004e+00 1 0 0
936 781 9 4.1699999999999998e-01 -1.0757904313314530e+01 -3.7274742176130768e+00 -6.3504625314131244e+00 1 0 0
336 580 9 4.1699999999999998e-01 -1.0691069129289147e+01 -7.5495784271098927e+00 -1.0397096480582070e+01 0 0 0
983 797 10 -8.3399999999999996e-01 -1.0922602529814968e+01 -4.8890412495327046e-01 -1.1112386920237718e+01 1 0 0
935 781 10 -8.3399999999999996e-01 -1.0684362301898231e+01 -4.2389639249795481e+00 -7.1561945729213097e+00 1 0 0
955 787 9 4.1699999999999998e-01 -1.0667993509472595e+01 -2.3203063756459290e+00 -1.7471621970419846e+00 1 0 0
392 599 9 4.1699999999999998e-01 -1.0648386487078682e+01 -2.1473766740900131e+00 -9.9236224845960592e+00 0 0 0
399 601 9 4.1699999999999998e-01 -1.0866870251023784e+01 -1.8254140785184798e+00 -5.6536878140376023e+00 0 0 0
375 593 9 4.1699999999999998e-01 -1.0810779972065372e+01 -5.5747825402629232e+00 -1.2070394991071032e+00 0 0 0
928 778 9 4.1699999999999998e-01 -1.0734446872785831e+01 -5.4749353181086908e+00 -8.5071633504281898e+00 1 0 0
456 620 9 4.1699999999999998e-01 -1.0759026540897954e+01 -1.1896847755513836e+01 -1.1777120195160441e+01 0 1 0
372 592 9 4.1699999999999998e-01 -1.0918501035281958e+01 -4.0406385814146395e+00 -3.6630301094062339e+00 0 0 0
455 620 9 4.1699999999999998e-01 -1.0904346567103982e+01 -1.2157638275154410e+01 -1.0292948410633466e+01 0 1 0
404 603 9 4.1699999999999998e-01 -1.1966862945855498e+01 -3.6253853334855601e-01 -3.0322028856826986e+00 0 0 0
995 801 10 -8.3399999999999996e-01 -1.0956661133934983e+01 -8.0653309208675850e-01 -7.1012001122070538e+00 1 0 0
335 580 9 4.1699999999999998e-01 -1.0471608430454085e+01 -7.9870880032906131e+00 -1.1829687926689418e+01 0 0 0
1103 837 10 -8.3399999999999996e-01 -1.1178075330858366e+01 -1.2295582976194375e+01 -7.0782014604877501e+00 1 1 0
1114 840 9 4.1699999999999998e-01 -1.0812200089306826e+01 -1.2258513273511838e+01 -3.8229355683385888e+00 1 1 0
1105 837 9 4.1699999999999998e-01 -1.0905447019550284e+01 -1.1811013367716392e+01 -7.8573663926867807e+00 1 1 0
954 787 9 4.1699999999999998e-01 -1.0943662549210966e+01 -1.7173197878576616e+00 -3.8616614838393770e-01 1 0 0
13 13 8 0.0000000000000000e+00 -8.2560018974716431e+00 -1.0630128253146557e+01 7.3978642793404803e-01 0 0 0
14 14 8 0.0000000000000000e+00 -8.2577710985852821e+00 -8.6816601991746687e+00 2.9889517371573731e+00 0 0 0
17 17 8 0.0000000000000000e+00 -8.4470229080112560e+00 -1.0677274473067843e+01 4.9807197730359354e+00 0 0 0
18 18 8 0.0000000000000000e+00 -8.3649853072872116e+00 -8.6553999648065041e+00 7.0977758381266458e+00 0 0 0
21 21 8 0.0000000000000000e+00 -8.1785631731483175e+00 -1.0562267108721885e+01 9.2009381491673778e+00 0 0 0
22 22 8 0.0000000000000000e+00 -8.3119250960810565e+00 -8.5854288754708055e+00 1.1269859216830644e+01 0 0 0
37 37 8 0.0000000000000000e+00 -8.3240015097106959e+00 -6.5089047369983382e+00 1.1116789874352337e+00 0 0 0
38 38 8 0.0000000000000000e+00 -8.3216683549982626e+00 -4.4676635413012367e+00 3.3022979513482160e+00 0 0 0
41 41 8 0.0000000000000000e+00 -8.2217041776452273e+00 -6.5951648236128904e+00 5.0693169389075337e+00 0 0 0
42 42 8 0.0000000000000000e+00 -8.3487341307888308e+00 -4.5016429387168095e+00 7.2109420893073839e+00 0 0 0
45 45 8 0.0000000000000000e+00 -8.3841703064603443e+00 -6.5437350963246441e+00 9.2929381792850414e+00 0 0 0
46 46 8 0.0000000000000000e+00 -8.1945986743880290e+00 -4.3968890543028127e+00 1.1231343521150364e+01 0 0 0
61 61 8 0.0000000000000000e+00 -8.2794638239708327e+00 -2.3656720676269685e+00 1.0571909889981528e+00 0 0 0
62 62 8 0.0000000000000000e+00 -8.2679546585262162e+00 -2.2855688373711563e-01 3.1507081895769953e+00 0 0 0
65 65 8 0.0000000000000000e+00 -8.3118922310940526e+00 -2.3923830343518548e+00 5.3084318921299021e+00 0 0 0
66 66 8 0.0000000000000000e+00 -8.3025753008196421e+00 -2.8575186548142606e-01 7.1851428889757587e+00 0 0 0
69 69 8 0.0000000000000000e+00 -8.3758611313236369e+00 -2.3606487331006822e+00 9.2379413331513494e+00 0 0 0
70 70 8 0.0000000000000000e+00 -8.2290015185185386e+00 -4.1721188956057731e-01 1.1275229180060441e+01 0 0 0
346 584 10 -8.3399999999999996e-01 -1.1174769636856452e+01 -1.0463383630429147e+01 2.9210438255945337e+00 0 0 0
347 584 9 4.1699999999999998e-01 -1.0961199544898722e+01 -9.8835509348399082e+00 3.6520800652942267e+00 0 0 0
888 765 9 4.1699999999999998e-01 -1.1008421649397137e+01 -7.8769260630774145e+00 1.7032078382182259e+00 1 0 0
887 765 10 -8.3399999999999996e-01 -1.0642781924631716e+01 -8.5399140013393531e+00 1.1175573931967870e+00 1 0 0
363 589 9 4.1699999999999998e-01 -1.1660961226436482e+01 -6.7954898348142390e+00 1.0482450819526955e+01 0 0 -1
968 792 10 -8.3399999999999996e-01 -1.0578038615501484e+01 -4.3791938333462461e+00 9.2828739332876182e+00 1 0 0
352 586 10 -8.3399999999999996e-01 -1.1329859003218582e+01 -1.0746923019406079e+01 6.8902068145824513e+00 0 0 0
386 597 9 4.1699999999999998e-01 -1.0395270876262423e+01 -6.3852938277197477e+00 7.9082549498335970e+00 0 0 0
959 789 10 -8.3399999999999996e-01 -1.0668438269674109e+01 -2.3716770812206152e+00 3.2835548691809522e+00 1 0 0
361 589 10 -8.3399999999999996e-01 -1.1179729379932649e+01 -6.7251074566125997e+00 1.1306886489764761e+01 0 0 -1
378 594 9 4.1699999999999998e-01 -1.0589483974618547e+01 -3.7879080753397774e+00 5.3103154773391725e-01 0 0 0
969 792 9 4.1699999999999998e-01 -1.0535447834437404e+01 -3.7112624018831579e+00 9.9671898104581427e+00 1 0 0
1010 806 10 -8.3399999999999996e-01 -1.1237095246036175e+01 -4.2415323790166637e-01 9.5238854255089223e-01 1 0 0
359 588 9 4.1699999999999998e-01 -1.0259230868813745e+01 -8.6036676912606094e+00 8.3883743555769659e+00 0 0 0
362 589 9 4.1699999999999998e-01 -1.0447753228777255e+01 -6.1411147248837459e+00 1.1108402779307470e+01 0 0 -1
376 594 10 -8.3399999999999996e-01 -1.0616681290276709e+01 -4.2911982150878272e+00 1.3447829167008527e+00 0 0 0
377 594 9 4.1699999999999998e-01 -1.0439131054866843e+01 -3.6478297025014168e+00 2.0309207785749561e+00 0 0 0
960 789 9 4.1699999999999998e-01 -1.1397598348304021e+01 -1.9427379222180763e+00 2.8357054579044960e+00 1 0 0
379 595 10 -8.3399999999999996e-01 -1.0734495848844407e+01 -8.5673919645442869e+00 4.8341699046615156e+00 0 0 0
380 595 9 4.1699999999999998e-01 -1.0542623556617372e+01 -8.0756969886968619e+00 5.6327019744895992e+00 0 0 0
387 597 9 4.1699999999999998e-01 -1.0937241421689677e+01 -5.9580516597924440e+00 6.5608026480850361e+00 0 0 0
382 596 10 -8.3399999999999996e-01 -1.0992731240909583e+01 -2.3948289174364863e+00 7.2881164408357657e+00 0 0 0
383 596 9 4.1699999999999998e-01 -1.0888665172076456e+01 -2.0800928514487538e+00 6.3901502238170247e+00 0 0 0
889 765 9 4.1699999999999998e-01 -1.0607074953114926e+01 -8.1113194782808602e+00 2.6241783940944535e-01 1 0 0
385 597 10 -8.3399999999999996e-01 -1.0833368708955339e+01 -6.7228236708243463e+00 7.1269884841416014e+00 0 0 0
353 586 9 4.1699999999999998e-01 -1.1841756439189682e+01 -1.0405040984544668e+01 6.1571927111733640e+00 0 0 0
381 595 9 4.1699999999999998e-01 -1.0821914649801595e+01 -7.8981492775761053e+00 4.1554174820104128e+00 0 0 0
348 584 9 4.1699999999999998e-01 -1.0986198908703642e+01 -9.9437742451951916e+00 2.1395841534048046e+00 0 0 0
384 596 9 4.1699999999999998e-01 -1.0952460788203181e+01 -1.6039425533230565e+00 7.8258057764219018e+00 0 0 0
950 786 10 -8.3399999999999996e-01 -1.0958517656643080e+01 -6.6072032157659146e+00 2.9187177354345475e+00 1 0 0
963 790 9 4.1699999999999998e-01 -1.0922179867142432e+01 -4.0887602883698033e+00 5.7133592380294811e+00 1 0 0
1137 848 9 4.1699999999999998e-01 -1.0733498858775775e+01 -1.1800427612273277e+01 8.4615178018161856e+00 1 1 0
962 790 10 -8.3399999999999996e-01 -1.0719477995814202e+01 -4.7607767860815500e+00 5.0625612429518858e+00 1 0 0
360 588 9 4.1699999999999998e-01 -1.1634623332028429e+01 -8.3271155797706058e+00 8.9573298292300638e+00 0 0 0
357 587 9 4.1699999999999998e-01 -1.0712975524720610e+01 -1.0216117726079556e+01 1.0972980580345583e+01 0 0 0
355 587 10 -8.3399999999999996e-01 -1.0918260234498691e+01 -1.0419094834696519e+01 1.1885609091963580e+01 0 0 0
970 792 9 4.1699999999999998e-01 -1.0893958863783581e+01 -3.9111298499677392e+00 8.5099937989472121e+00 1 0 0
354 586 9 4.1699999999999998e-01 -1.1498949346679940e+01 -1.0135378420055307e+01 7.6069032619275276e+00 0 0 0
358 588 10 -8.3399999999999996e-01 -1.0951726255712275e+01 -8.9967841298149853e+00 8.9195444597021307e+00 0 0 0
964 790 9 4.1699999999999998e-01 -1.0182950589497555e+01 -4.3095870140418269e+00 4.4107956765655798e+00 1 0 0
356 587 9 4.1699999999999998e-01 -1.1250435678952165e+01 -9.5966819141297872e+00 1.2245510504273746e+01 0 0 0
961 789 9 4.1699999999999998e-01 -1.0605264178671563e+01 -1.9207474504653079e+00 4.1255190024633395e+00 1 0 0
951 786 9 4.1699999999999998e-01 -1.1167535620567607e+01 -6.1982792511316704e+00 3.7585548046893278e+00 1 0 0
952 786 9 4.1699999999999998e-01 -1.0579208315912849e+01 -5.9009327751086165e+00 2.3957077761346381e+00 1 0 0
410 605 9 4.1699999999999998e-01 -1.1761101106634202e+01 -1.4766237779198430e-01 4.9682608439882809e+00 0 0 0
415 607 10 -8.3399999999999996e-01 -1.0919770140085802e+01 -2.6251969520405516e-01 8.9723350565718860e+00 0 0 0
1031 813 10 -8.3399999999999996e-01 -1.1278281027782466e+01 -2.8268685831077027e+00 1.1562010225572942e+01 1 0 0
409 605 10 -8.3399999999999996e-01 -1.0944088567343409e+01 -5.2723414238874255e-01 5.2917539389783581e+00 0 0 0
351 585 9 4.1699999999999998e-01 -1.0367569824028211e+01 -1.1998538524652542e+01 2.8331529507507097e-01 0 0 0
473 626 9 4.1699999999999998e-01 -1.1350800278091580e+01 -1.2067669373667073e+01 4.0542347204266376e+00 0 1 0
474 626 9 4.1699999999999998e-01 -1.0855517331298470e+01 -1.2044131553124362e+01 5.4846318869967208e+00 0 1 0
350 585 9 4.1699999999999998e-01 -1.0788984998765768e+01 -1.1946808199781803e+01 1.7364605046299972e+00 0 0 0
1032 813 9 4.1699999999999998e-01 -1.1039202138172028e+01 -2.0940726947974966e+00 1.2129534634575634e+01 1 0 0
1033 813 9 4.1699999999999998e-01 -1.1531522542701124e+01 -3.5252301820154903e+00 1.2165659487326838e+01 1 0 0
374 593 9 4.1699999999999998e-01 -1.0783465996476721e+01 -6.0110331830391255e+00 2.4238608206973028e-01 0 0 0
73 73 8 0.0000000000000000e+00 -8.3266292424828361e+00 1.5507639422243511e+00 -1.1409684901354643e+01 0 0 0
74 74 8 0.0000000000000000e+00 -8.2417923012549679e+00 3.6769195796668854e+00 -9.3951450641364218e+00 0 0 0
77 77 8 0.0000000000000000e+00 -8.2232421560106097e+00 1.7379295751781225e+00 -7.2829341577386284e+00 0 0 0
78 78 8 0.0000000000000000e+00 -8.1375819897589157e+00 3.7172018008038918e+00 -5.0949080965212712e+00 0 0 0
81 81 8 0.0000000000000000e+00 -8.3219591409052391e+00 1.8038854393105708e+00 -2.8484245006795832e+00 0 0 0
82 82 8 0.0000000000000000e+00 -8.2690516067057871e+00 3.7396665401300107e+00 -9.5950690842137287e-01 0 0 0
97 97 8 0.0000000000000000e+00 -8.3894147973708364e+00 5.9377429315553689e+00 -1.1331343832680558e+01 0 0 0
98 98 8 0.0000000000000000e+00 -8.5650626933562535e+00 7.9854726075287301e+00 -9.3060989441602722e+00 0 0 0
101 101 8 0.0000000000000000e+00 -8.3664716169425244e+00 5.9594915287920402e+00 -7.3037285996727075e+00 0 0 0
102 102 8 0.0000000000000000e+00 -8.3635660548039272e+00 7.9508452825584461e+00 -5.0848908908858537e+00 0 0 0
105 105 8 0.0000000000000000e+00 -8.2397855061838747e+00 5.9245794586256073e+00 -2.9698545592433745e+00 0 0 0
106 106 8 0.0000000000000000e+00 -8.2487368898950013e+00 8.0094861297697477e+00 -1.0392257500453104e+00 0 0 0
121 121 8 0.0000000000000000e+00 -8.4049960354049329e+00 9.9830043398669890e+00 -1.1340263748692715e+01 0 0 0
122 122 8 0.0000000000000000e+00 -8.3676925535296025e+00 1.2043982758601771e+01 -9.2148698729049503e+00 0 0 0
125 125 8 0.0000000000000000e+00 -8.4180806066756677e+00 1.0032198441051547e+01 -7.2740680788096626e+00 0 0 0
126 126 8 0.0000000000000000e+00 -8.4722710201351941e+00 1.1922121749572405e+01 -5.2508070066331536e+00 0 0 0
129 129 8 0.0000000000000000e+00 -8.3884372468985688e+00 9.9750047710167102e+00 -3.0855995799667300e+00 0 0 0
130 130 8 0.0000000000000000e+00 -8.4379710589158687e+00 1.1885712828157070e+01 -1.1616964447334310e+00 0 0 0
467 624 9 4.1699999999999998e-01 -1.1754990550992778e+01 9.7280249057500470e+00 -1.1039642695667333e+00 0 0 0
426 610 9 4.1699999999999998e-01 -1.1015043883216817e+01 8.8855994190230856e+00 -8.7667385747621633e+00 0 0 0
464 623 9 4.1699999999999998e-01 -1.1975121262269921e+01 8.2266431025190805e+00 -3.3870450509061572e+00 0 0 0
395 600 9 4.1699999999999998e-01 -1.0712869331720492e+01 2.5616834945629896e+00 -8.7958606014384113e+00 0 0 0
466 624 10 -8.3399999999999996e-01 -1.0855305700103658e+01 9.6055066773867495e+00 -8.0099839730317224e-01 0 0 0
465 623 9 4.1699999999999998e-01 -1.0883730616071913e+01 8.5822580057848779e+00 -2.3999767602663495e+00 0 0 0
1139 849 10 -8.3399999999999996e-01 -1.1123266702678242e+01 7.8747889579756434e+00 -1.2046729179780973e+01 1 0 1
422 609 9 4.1699999999999998e-01 -1.0669337759644124e+01 4.4241123452838469e+00 -1.1185642065275397e+01 0 0 0
434 613 9 4.1699999999999998e-01 -1.2070105666929697e+01 3.4566328765334404e+00 -3.3738867939952959e+00 0 0 0
424 610 10 -8.3399999999999996e-01 -1.1214937890653319e+01 9.2677734386118349e+00 -9.6212667230252684e+00 0 0 0
425 610 9 4.1699999999999998e-01 -1.1494008013999295e+01 1.0162072524499024e+01 -9.4248461922945861e+00 0 0 0
396 600 9 4.1699999999999998e-01 -1.1566328094213462e+01 1.5066705049722273e+00 -9.4670202204971492e+00 0 0 0
427 611 10 -8.3399999999999996e-01 -1.0692715427041795e+01 3.5111868366434740e+00 -7.1111495790674910e+00 0 0 0
428 611 9 4.1699999999999998e-01 -1.0346615304435561e+01 3.0036501345964735e+00 -6.3770831669237049e+00 0 0 0
429 611 9 4.1699999999999998e-01 -1.0821866572298104e+01 4.3903594019877055e+00 -6.7553293110372374e+00 0 0 0
430 612 10 -8.3399999999999996e-01 -1.0576443841916042e+01 5.9039030136971897e+00 -5.0169680910541627e+00 0 0 0
431 612 9 4.1699999999999998e-01 -1.0504058072268037e+01 5.0862421661512318e+00 -4.5246032880950473e+00 0 0 0
432 612 9 4.1699999999999998e-01 -1.0382602760077122e+01 6.5879347065814722e+00 -4.3760637063463488e+00 0 0 0
1112 840 10 -8.3399999999999996e-01 -1.1115307855136663e+01 1.1846062603977423e+01 -3.1021863191339230e+00 1 0 0
435 613 9 4.1699999999999998e-01 -1.1012020553749791e+01 4.0749953365654044e+00 -2.4850777600363880e+00 0 0 0
1051 819 9 4.1699999999999998e-01 -1.1116252296925968e+01 5.9429666994529287e+00 -9.2655272577325078e+00 1 0 0
436 614 10 -8.3399999999999996e-01 -1.0773288852980990e+01 5.6786854034629570e+00 -1.3287772433765517e+00 0 0 0
1008 805 9 4.1699999999999998e-01 -1.1860780324421301e+01 1.9983674090114463e+00 -1.1533584645575559e+00 1 0 0
463 623 10 -8.3399999999999996e-01 -1.1083085246710803e+01 7.9946470599229702e+00 -3.1288140215012374e+00 0 0 0
458 621 9 4.1699999999999998e-01 -1.1072139113783901e+01 8.4411160022667620e+00 -6.3060696434114414e+00 0 0 0
394 600 10 -8.3399999999999996e-01 -1.0714286494545975e+01 1.9392435000579842e+00 -9.5230465208460195e+00 0 0 0
433 613 10 -8.3399999999999996e-01 -1.1179964398766687e+01 3.8082797617227815e+00 -3.3888976137850997e+00 0 0 0
457 621 10 -8.3399999999999996e-01 -1.0882484009904264e+01 7.7574127582186145e+00 -6.9485750984238148e+00 0 0 0
405 603 9 4.1699999999999998e-01 -1.0905108853422218e+01 2.1389885556738275e-01 -2.1199012240767194e+00 0 0 0
459 621 9 4.1699999999999998e-01 -1.0490569920584695e+01 7.0495378315904862e+00 -6.4371570303710461e+00 0 0 0
460 622 10 -8.3399999999999996e-01 -1.0895716362295733e+01 1.0134376923064025e+01 -5.3629205024484570e+00 0 0 0
461 622 9 4.1699999999999998e-01 -1.0688236347206601e+01 1.0494090554204185e+01 -4.5004872393730304e+00 0 0 0
462 622 9 4.1699999999999998e-01 -1.0797032911567060e+01 1.0874577045993895e+01 -5.9617504709435405e+00 0 0 0
1050 819 9 4.1699999999999998e-01 -1.1590167122733051e+01 6.4512771266324274e+00 -1.0610488628358016e+01 1 0 0
421 609 10 -8.3399999999999996e-01 -1.0408870223273253e+01 3.6142011058728345e+00 -1.1624313193562084e+01 0 0 0
1009 805 9 4.1699999999999998e-01 -1.0687770039692928e+01 2.3179684043840494e+00 -2.5125059688976398e-01 1 0 0
1049 819 10 -8.3399999999999996e-01 -1.1345705745804411e+01 5.6499984128570473e+00 -1.0147430247394301e+01 1 0 0
1052 820 10 -8.3399999999999996e-01 -1.0604893165863595e+01 1.6056733133577115e+00 -4.9042162407579291e+00 1 0 0
468 624 9 4.1699999999999998e-01 -1.0545505880280686e+01 1.0489760759771528e+01 -6.0516515206914634e-01 0 0 0
438 614 9 4.1699999999999998e-01 -1.0555865910498797e+01 6.5018360475734207e+00 -1.7662498187705464e+00 0 0 0
1007 805 10 -8.3399999999999996e-01 -1.0930882985503230e+01 1.8106745664399253e+00 -1.0257059110660740e+00 1 0 0
1141 849 9 4.1699999999999998e-01 -1.0926305717258407e+01 8.2772577421074391e+00 -1.1200882115156581e+01 1 0 1
1053 820 9 4.1699999999999998e-01 -1.0861572889432640e+01 2.4411466279118810e+00 -4.5139185838181737e+00 1 0 0
437 614 9 4.1699999999999998e-01 -1.1393115498334428e+01 5.9277006283207205e+00 -6.4318384433506637e-01 0 0 0
454 620 10 -8.3399999999999996e-01 -1.0734674926074261e+01 1.2058870139244611e+01 -1.1125801832847422e+01 0 0 0
423 609 9 4.1699999999999998e-01 -1.0563161276637636e+01 2.9288180649659030e+00 -1.0974177236610464e+01 0 0 0
1054 820 9 4.1699999999999998e-01 -1.0224140202128760e+01 1.1092633010745243e+00 -4.1797603487319828e+00 1 0 0
985 797 9 4.1699999999999998e-01 -1.0596268288041255e+01 1.8052139033856060e-01 -1.0511048977923496e+01 1 0 0
85 85 8 0.0000000000000000e+00 -8.3500476824666663e+00 1.7468525028369988e+00 1.0108227044335367e+00 0 0 0
86 86 8 0.0000000000000000e+00 -8.4019648941526608e+00 3.7819068966591858e+00 2.9614871993894027e+00 0 0 0
89 89 8 0.0000000000000000e+00 -8.2823209852313209e+00 1.8044744367603380e+00 5.1739341594429202e+00 0 0 0
90 90 8 0.0000000000000000e+00 -8.4532187292268812e+00 3.7738668837045575e+00 7.2018176598180501e+00 0 0 0
93 93 8 0.0000000000000000e+00 -8.5128527023508163e+00 1.7273846907340820e+00 9.2869192791666322e+00 0 0 0
94 94 8 0.0000000000000000e+00 -8.0955456864243480e+00 3.6849546041339369e+00 1.1221521253641129e+01 0 0 0
109 109 8 0.0000000000000000e+00 -8.2909519929534863e+00 5.8858298500792543e+00 1.0314237737530487e+00 0 0 0
110 110 8 0.0000000000000000e+00 -8.2526682600063239e+00 7.8822460669822183e+00 3.1964499614946114e+00 0 0 0
113 113 8 0.0000000000000000e+00 -8.3751908014994960e+00 5.7133226523791052e+00 5.0527127693011105e+00 0 0 0
114 114 8 0.0000000000000000e+00 -8.5371761375044368e+00 7.7862006058477045e+00 7.1628109881887854e+00 0 0 0
117 117 8 0.0000000000000000e+00 -8.4031538929859106e+00 5.7904799815180708e+00 9.1750582281168409e+00 0 0 0
118 118 8 0.0000000000000000e+00 -8.3903704693930141e+00 7.9570823872219449e+00 1.1195616269548216e+01 0 0 0
133 133 8 0.0000000000000000e+00 -8.2335355489320268e+00 9.9984507422195161e+00 9.9930618299469720e-01 0 0 0
134 134 8 0.0000000000000000e+00 -8.3323155209862225e+00 1.2034029185054539e+01 3.0070440600056560e+00 0 0 0
137 137 8 0.0000000000000000e+00 -8.3997412231439732e+00 9.9650843630962722e+00 5.1634508363184670e+00 0 0 0
138 138 8 0.0000000000000000e+00 -8.2757038758156831e+00 1.1997155892840302e+01 7.1257240073891746e+00 0 0 0
141 141 8 0.0000000000000000e+00 -8.5201031833567793e+00 9.7860272187379209e+00 9.1042097106032980e+00 0 0 0
1138 848 9 4.1699999999999998e-01 -1.0317574418988698e+01 1.1411653501321291e+01 8.2829670327485090e+00 1 0 0
406 604 10 -8.3399999999999996e-01 -1.0767534638612702e+01 1.6780509332516320e+00 2.9649673337133424e+00 0 0 0
407 604 9 4.1699999999999998e-01 -1.0823187885938642e+01 2.2057317773313971e+00 3.7616401765420515e+00 0 0 0
479 628 9 4.1699999999999998e-01 -1.0674392731608121e+01 1.0921710962251833e+01 1.0408312272073230e+01 0 0 0
412 606 10 -8.3399999999999996e-01 -1.0754208048594114e+01 3.9444423199603502e+00 5.3383611048938926e+00 0 0 0
413 606 9 4.1699999999999998e-01 -1.0500620635908749e+01 4.4819836230700796e+00 4.5880446458698092e+00 0 0 0
478 628 10 -8.3399999999999996e-01 -1.0962724227374629e+01 1.0354027815016206e+01 1.1123038136468489e+01 0 0 0
1020 809 9 4.1699999999999998e-01 -1.0756062678885471e+01 2.2808893282294749e+00 6.1320714011827429e+00 1 0 0
472 626 10 -8.3399999999999996e-01 -1.0970687532672112e+01 1.2031291449937063e+01 4.7329362867846996e+00 0 0 0
1060 822 9 4.1699999999999998e-01 -1.0721022959148652e+01 4.3243539601779544e+00 1.3380178428790587e-01 1 0 0
419 608 9 4.1699999999999998e-01 -1.0469200130059576e+01 2.1037679018951980e+00 1.1776419991370046e+01 0 0 0
1070 826 10 -8.3399999999999996e-01 -1.1309755094961629e+01 6.2778560864528883e+00 7.0964455350471063e+00 1 0 0
1021 809 9 4.1699999999999998e-01 -1.0761603126909479e+01 2.5840404543874698e+00 7.6152990664556341e+00 1 0 0
439 615 10 -8.3399999999999996e-01 -1.0845202281053092e+01 5.7368957242622400e+00 3.2501475440639718e+00 0 0 0
440 615 9 4.1699999999999998e-01 -1.0698444530773891e+01 6.2049179424159986e+00 2.4281686719232458e+00 0 0 0
1012 806 9 4.1699999999999998e-01 -1.1173985536246043e+01 5.8888795092483211e-03 1.8052151328146753e+00 1 0 0
442 616 10 -8.3399999999999996e-01 -1.0831552458663475e+01 7.9869244176320455e+00 5.0633262411597437e+00 0 0 0
443 616 9 4.1699999999999998e-01 -1.0840894833157076e+01 8.6500942752067367e+00 4.3731448500443673e+00 0 0 0
1059 822 9 4.1699999999999998e-01 -1.0708639189220790e+01 4.5116298442596960e+00 1.6360237509655022e+00 1 0 0
445 617 10 -8.3399999999999996e-01 -1.1124792221201197e+01 4.0912329216514198e+00 8.7616125108902150e+00 0 0 0
446 617 9 4.1699999999999998e-01 -1.0876682346491181e+01 4.5579891777352364e+00 9.5596176137980713e+00 0 0 0
1134 847 9 4.1699999999999998e-01 -1.0901614052306009e+01 7.0814852142842470e+00 1.0403316578789909e+01 1 0 0
408 604 9 4.1699999999999998e-01 -1.0864572320790288e+01 2.3091356861918064e+00 2.2518420064497411e+00 0 0 0
1140 849 9 4.1699999999999998e-01 -1.0843192948927889e+01 8.5236777491991678e+00 1.1964454768338260e+01 1 0 0
1071 826 9 4.1699999999999998e-01 -1.1334559374695443e+01 6.9324075372650924e+00 6.3984630788109218e+00 1 0 0
1019 809 10 -8.3399999999999996e-01 -1.0743366068987481e+01 1.8586606071403262e+00 6.9910205319227288e+00 1 0 0
142 142 8 0.0000000000000000e+00 -8.3797105910348542e+00 1.2055266563069294e+01 1.1216243188912056e+01 0 0 0
450 618 9 4.1699999999999998e-01 -1.0946271340377567e+01 6.1137533599217528e+00 1.1844009079789187e+01 0 0 0