LAMMPS data file via write_data, version 16 Mar 2018, timestep = 5000

714 atoms
12 atom types
403 bonds
8 bond types
260 angles
13 angle types
132 dihedrals
18 dihedral types

-1.9725386000000000e+01 1.9725386000000000e+01 xlo xhi
-7.3970199000000001e+00 7.3970199000000001e+00 ylo yhi
-7.3970199000000001e+00 7.3970199000000001e+00 zlo zhi

Masses

1 1.008
2 1.008
3 12.011
4 12.011
5 15.9994
6 15.9994
7 32.06
8 196.966
9 1.008
10 15.9994
11 35.45
12 22.9898

Pair Coeffs # lj/charmmfsw/coul/long

1 0.028 2.38761 0.028 2.38761
2 0.024 2.38761 0.024 2.38761
3 0.056 3.58141 0.01 3.38542
4 0.078 3.63487 0.01 3.38542
5 0.1 2.93997 0.1 2.93997
6 0.12 3.02906 0.12 3.02906
7 0.47 3.74177 0.47 3.74177
8 5.29 2.62904 5.29 2.62904
9 0.046 0.400014 0.046 0.400014
10 0.1521 3.15057 0.1521 3.15057
11 0.15 4.04468 0.15 4.04468
12 0.0469 2.42993 0.0469 2.42993

Bond Coeffs # harmonic

1 222.5 1.53
2 222.5 1.528
3 309 1.111
4 340 1.43
5 322 1.111
6 450 0.9572
7 540 1.448
8 250 1.575

Angle Coeffs # charmm

1 58.35 113.6 11.16 2.561
2 58 115 8 2.561
3 26.5 110.1 22.53 2.179
4 75.7 110.1 0 0
5 34.6 110.1 22.53 2.179
6 15 109 27 1.9
7 34.6 110.1 22.53 2.179
8 35.5 109 5.4 1.802
9 60 109.5 0 0
10 35.5 108.4 5.4 1.802
11 55 104.52 0 0
12 130 109.47 35 2.45
13 85 98 0 0

Dihedral Coeffs # charmmfsw

1 0.101 2 0 1
2 0.142 3 180 0
3 0.074 4 0 0
4 0.097 5 0 0
5 0.162 2 0 1
6 0.047 3 180 0
7 0.105 4 0 0
8 0.177 5 0 0
9 0.19 3 0 1
10 0 3 0 1
11 0.16 3 0 1
12 0 3 0 1
13 0 3 0 1
14 0.19 3 0 1
15 0.19 3 0 1
16 0.19 3 0 1
17 0.16 3 0 1
18 0 3 0 1

Atoms # full

1 1 8 0.0000000000000000e+00 -1.3558304009858690e+01 -4.6959017826898757e+00 -6.2940148250620167e+00 0 0 0
2 2 8 0.0000000000000000e+00 -1.1689281053369591e+01 -4.9182421734787676e+00 -4.1148149689043239e+00 0 0 0
4 4 8 0.0000000000000000e+00 -1.0626442032561089e+01 -5.5656517900872826e+00 -6.7366073961581776e+00 0 0 0
5 5 8 0.0000000000000000e+00 -1.3788067288142853e+01 -6.8205610806437305e+00 -4.2681344485350774e+00 0 0 0
6 6 8 0.0000000000000000e+00 -1.4794119260493568e+01 -6.0070288142765094e+00 -1.5619498099679683e+00 0 0 0
7 7 8 0.0000000000000000e+00 -1.2020470521659222e+01 -6.8733768415320853e+00 -1.8360756404144614e+00 0 0 0
194 266 9 4.1699999999999998e-01 -1.6664794692904220e+01 -7.0082226665681429e+00 -4.5690217967423958e+00 0 0 0
18 18 8 0.0000000000000000e+00 -1.1246615070820079e+01 -2.8755236498108534e+00 -6.2785475927983896e+00 0 0 0
21 21 8 0.0000000000000000e+00 -1.4514980297110837e+01 -3.9897735081729402e+00 -3.6825195921190792e+00 0 0 0
23 23 8 0.0000000000000000e+00 -1.2251833677326937e+01 -2.2824808229356957e+00 -3.4544923893264281e+00 0 0 0
228 278 10 -8.3399999999999996e-01 -1.6173586011288183e+01 -2.9755809718745723e+00 -1.0853956787975212e+00 0 0 0
180 262 10 -8.3399999999999996e-01 -1.6244591188891309e+01 -6.6134207985797504e+00 -6.8187297329102368e+00 0 0 0
229 278 9 4.1699999999999998e-01 -1.5856746656211666e+01 -2.4250702637333572e+00 -1.7788299445104849e+00 0 0 0
54 54 8 0.0000000000000000e+00 -1.3389149770129579e+01 4.3843194743638803e+00 -1.4372751476713722e-01 0 0 0
642 416 9 4.1699999999999998e-01 -1.9244251821845673e+01 -6.8522416097238530e+00 -7.8955834535595726e-01 1 0 0
213 273 10 -8.3399999999999996e-01 -1.7169364989068018e+01 -2.1160542552443653e+00 -3.6620846578048014e+00 0 0 0
12 12 8 0.0000000000000000e+00 -1.2652696134604215e+01 -4.1325248674558335e+00 -1.3770620253312225e+00 0 0 0
237 281 10 -8.3399999999999996e-01 -1.4860540322655993e+01 -1.4733448505947053e+00 -5.5046763497469184e+00 0 0 1
239 281 9 4.1699999999999998e-01 -1.4216215936786581e+01 -1.2273784067495594e+00 -6.1783538188657845e+00 0 0 1
248 284 9 4.1699999999999998e-01 -1.8495330921518033e+01 8.2625719432433153e-01 -6.5488492946295151e+00 0 0 0
24 24 8 0.0000000000000000e+00 -1.0276272711825737e+01 -2.9603046462010096e-01 -3.3639523451587463e+00 0 0 0
549 385 10 -8.3399999999999996e-01 -1.7045091558551999e+01 -4.3345560954280966e+00 -5.5296823027671733e+00 1 1 0
190 265 9 4.1699999999999998e-01 -1.6688630067793010e+01 6.4998945267946011e+00 -2.6390928881715934e+00 0 -1 0
191 265 9 4.1699999999999998e-01 -1.7608436425598132e+01 5.4810772255849072e+00 -3.1990151175446107e+00 0 -1 0
682 430 10 -8.3399999999999996e-01 -1.9327602572750784e+01 5.0903238575328897e+00 -3.8958821608195313e+00 1 0 0
215 273 9 4.1699999999999998e-01 -1.6316763208937147e+01 -1.7903223907316062e+00 -4.0159316905523541e+00 0 0 0
214 273 9 4.1699999999999998e-01 -1.7565134577147628e+01 -1.3623646359683421e+00 -3.1607222331284683e+00 0 0 0
182 262 9 4.1699999999999998e-01 -1.6287131846146877e+01 -5.6956929004681207e+00 -6.4118777594692817e+00 0 0 0
192 266 10 -8.3399999999999996e-01 -1.6738421147258730e+01 -6.6886557861259073e+00 -3.6534838700286998e+00 0 0 0
28 28 8 0.0000000000000000e+00 -1.3038080188080505e+01 -1.2471394661902706e+00 -9.4814377494710156e-01 0 0 0
687 431 9 4.1699999999999998e-01 -1.7867830137268339e+01 1.4130558656232983e+00 -3.1960948828263178e+00 1 0 0
33 33 8 0.0000000000000000e+00 -1.2032106878218618e+01 -2.6143048718054368e-01 -5.8936829913292268e+00 0 0 0
240 282 10 -8.3399999999999996e-01 -1.8968773539492233e+01 -2.9691255722770911e+00 -7.3114123448232098e+00 0 0 1
193 266 9 4.1699999999999998e-01 -1.7273425635350634e+01 -5.8819307752519920e+00 -3.7783016849386537e+00 0 0 0
259 288 9 4.1699999999999998e-01 -1.6610007579629432e+01 5.7445335045291417e+00 -8.0977943470981673e-01 0 0 0
230 278 9 4.1699999999999998e-01 -1.6689893164269797e+01 -3.5097289802761180e+00 -1.6283923531895621e+00 0 0 0
205 270 9 4.1699999999999998e-01 -1.9124873789939780e+01 -4.0626390460317348e+00 -3.0190310093755379e-01 0 0 0
206 270 9 4.1699999999999998e-01 -1.7639714094985841e+01 -4.5922476084100641e+00 -1.0679246040264093e-01 0 0 0
249 285 10 -8.3399999999999996e-01 -1.5565809372137862e+01 9.2642406602184690e-01 -5.0574964672261000e+00 0 0 0
22 22 8 0.0000000000000000e+00 -1.5542467097575756e+01 -5.2471933747994691e-03 -1.4880552394996289e+00 0 0 0
640 416 10 -8.3399999999999996e-01 -1.8797704917924783e+01 7.3533207069293143e+00 -9.3146190552063440e-02 1 -1 0
600 402 9 4.1699999999999998e-01 -1.8009009653388294e+01 3.9696239465217640e+00 -1.3659838242920104e+00 1 0 0
245 283 9 4.1699999999999998e-01 -1.5895282108325837e+01 2.5891059635453018e+00 -7.1784781241141262e+00 0 0 0
221 275 9 4.1699999999999998e-01 -1.8052289407343693e+01 -6.5180338398657711e-01 -6.4514579850787634e-01 0 0 0
184 263 9 4.1699999999999998e-01 -1.9625898559520941e+01 1.2094782607431567e+00 -1.6668887363106446e+00 0 -1 0
189 265 10 -8.3399999999999996e-01 -1.7012820421506273e+01 5.6138504323075278e+00 -2.4529465842262752e+00 0 -1 0
250 285 9 4.1699999999999998e-01 -1.6268211623407204e+01 9.4508819293071877e-01 -5.7429832145944832e+00 0 0 0
551 385 9 4.1699999999999998e-01 -1.6912925055264974e+01 -3.6176768344588073e+00 -4.8922932817266327e+00 1 1 0
238 281 9 4.1699999999999998e-01 -1.5149832327763489e+01 -5.4873634637909396e-01 -5.2688285399129988e+00 0 0 1
265 290 9 4.1699999999999998e-01 -1.8825332228071304e+01 -1.4750163073084894e+00 -6.1277386701783536e+00 0 0 0
62 62 8 0.0000000000000000e+00 -1.2909636313690687e+01 7.3251828449676779e+00 -7.0257987448764316e+00 0 0 1
685 431 10 -8.3399999999999996e-01 -1.8321277022613394e+01 5.5512041176369531e-01 -2.9987309371713291e+00 1 0 0
3 3 8 0.0000000000000000e+00 -1.1099305255685231e+01 7.1516677478900776e+00 -4.6020655169267837e+00 0 -1 0
35 35 8 0.0000000000000000e+00 -9.8791191669019724e+00 1.7286130738583843e+00 -5.6956256226101374e+00 0 0 0
220 275 9 4.1699999999999998e-01 -1.7126043917650630e+01 -1.8086668500734815e+00 -3.0586295873744729e-01 0 0 0
246 284 10 -8.3399999999999996e-01 -1.7662988267776434e+01 1.2989167853498624e+00 -6.7278963714654134e+00 0 0 0
57 57 8 0.0000000000000000e+00 -1.5808848694565860e+01 2.6927076307130284e+00 -5.2344978011049581e-01 0 0 0
44 44 8 0.0000000000000000e+00 -1.3303552032341374e+01 1.6309406439305392e+00 -5.7743904913058741e-01 0 0 0
251 285 9 4.1699999999999998e-01 -1.6088489896953423e+01 1.5318444744881647e+00 -4.5338408617647143e+00 0 0 0
253 286 9 4.1699999999999998e-01 -1.8120824035412141e+01 3.5020569482256900e+00 -3.8576805190320655e+00 0 0 0
8 8 8 0.0000000000000000e+00 -9.9464911188467884e+00 -4.8781461132371042e+00 -1.8475200405431011e+00 0 0 0
52 52 8 0.0000000000000000e+00 -1.0216014064508370e+01 6.6154596151779312e+00 -7.2409780813628108e+00 0 0 0
56 56 8 0.0000000000000000e+00 -1.1486043021900025e+01 5.2466502610979537e+00 -2.5253943592482573e+00 0 0 0
608 405 9 4.1699999999999998e-01 -1.9358824161899424e+01 -4.9239342242225668e+00 -2.3724573930593955e+00 1 0 0
254 286 9 4.1699999999999998e-01 -1.6799145664163305e+01 3.5528424265554608e+00 -3.0219634326808809e+00 0 0 0
252 286 10 -8.3399999999999996e-01 -1.7256946007896200e+01 3.0304216786096285e+00 -3.6644750638614281e+00 0 0 0
34 34 8 0.0000000000000000e+00 -1.2779973885986051e+01 2.4559494459635478e+00 -5.3861657486683061e+00 0 0 0
204 270 10 -8.3399999999999996e-01 -1.8432849056587209e+01 -4.5920593271391708e+00 -7.0387158700149000e-01 0 0 0
37 37 8 0.0000000000000000e+00 -1.3071608864503276e+01 3.8938852604078572e-01 -3.3211969751318793e+00 0 0 0
38 38 8 0.0000000000000000e+00 -1.3941740749030398e+01 3.0915856686476459e+00 -2.9114275086067698e+00 0 0 0
39 39 8 0.0000000000000000e+00 -1.0702324292635996e+01 5.8662661643850622e-01 -8.3595231426754701e-01 0 0 0
40 40 8 0.0000000000000000e+00 -1.1108067286268081e+01 2.4025238919007137e+00 -2.9527715208718321e+00 0 0 0
50 50 8 0.0000000000000000e+00 -1.3297196517453470e+01 5.2415151789794097e+00 -5.1366207777589441e+00 0 0 0
51 51 8 0.0000000000000000e+00 -1.0465756284153372e+01 4.3745328466209505e+00 -5.2969616107859263e+00 0 0 0
53 53 8 0.0000000000000000e+00 -1.4172261413861881e+01 5.9975885452011282e+00 -2.2534635712977797e+00 0 0 0
86 86 8 0.0000000000000000e+00 -1.0232682851108667e+01 -2.1404673745336376e+00 -1.3044743516766957e+00 0 0 0
55 55 8 0.0000000000000000e+00 -1.0835210970630222e+01 3.4816796197052704e+00 -3.7012106841350201e-01 0 0 0
684 430 9 4.1699999999999998e-01 -1.9551082012217769e+01 5.9077501382324984e+00 -4.3563128985844672e+00 1 0 0
550 385 9 4.1699999999999998e-01 -1.7862166556029138e+01 -4.1502411452311598e+00 -5.9707273290313196e+00 1 1 0
264 290 10 -8.3399999999999996e-01 -1.9107066272528215e+01 -7.1711042063847086e-01 -5.5612852045882732e+00 0 0 0
598 402 10 -8.3399999999999996e-01 -1.8825617849638679e+01 3.4819977484586984e+00 -1.2184798442743465e+00 1 0 0
686 431 9 4.1699999999999998e-01 -1.9016073271136872e+01 5.5431171563229564e-01 -3.6745718870681015e+00 1 0 0
599 402 9 4.1699999999999998e-01 -1.9248860788466732e+01 4.0905483025943905e+00 -6.4639336971472217e-01 1 0 0
209 271 9 4.1699999999999998e-01 -1.5164095987484004e+01 -4.5260746918056718e+00 4.4814730656451749e+00 0 0 -1
208 271 9 4.1699999999999998e-01 -1.5414514840256849e+01 -4.2581361940661475e+00 5.9262604376795025e+00 0 0 -1
10 10 8 0.0000000000000000e+00 -1.4150543515255125e+01 -4.6951928709725523e+00 9.8607620481433855e-01 0 0 0
11 11 8 0.0000000000000000e+00 -1.1484285790199120e+01 -5.8195080651882369e+00 7.0998381158957669e-01 0 0 0
13 13 8 0.0000000000000000e+00 -1.3116047519695796e+01 -6.4433458870906177e+00 3.0787430106124432e+00 0 0 0
14 14 8 0.0000000000000000e+00 -1.2501971887030194e+01 -5.3787323284440065e+00 5.8936558073787504e+00 0 0 0
16 16 8 0.0000000000000000e+00 -1.0684720312537504e+01 -4.7006218578531955e+00 3.2424145461615268e+00 0 0 0
27 27 8 0.0000000000000000e+00 -1.1737374730171421e+01 -2.9772689969415480e+00 1.0992238861895409e+00 0 0 0
29 29 8 0.0000000000000000e+00 -1.3332697115673874e+01 -3.4587381739979359e+00 3.4380852799944019e+00 0 0 0
30 30 8 0.0000000000000000e+00 -1.0966714710618529e+01 -8.8819590363435574e-01 6.3196159193189789e+00 0 0 0
32 32 8 0.0000000000000000e+00 -1.1022866006427972e+01 -1.8944911103625635e+00 3.7307779811064412e+00 0 0 0
198 268 10 -8.3399999999999996e-01 -1.6116406712441943e+01 -7.3660381197927549e+00 4.2934322254248194e+00 0 0 0
199 268 9 4.1699999999999998e-01 -1.5902518252972023e+01 -6.4549246688140469e+00 4.7930103575541629e+00 0 0 0
201 269 10 -8.3399999999999996e-01 -1.6723908290383470e+01 -6.6186063487434952e+00 1.5178437940415892e+00 0 0 0
202 269 9 4.1699999999999998e-01 -1.6434704228857726e+01 -6.9050092798877154e+00 2.4246015210771481e+00 0 0 0
207 271 10 -8.3399999999999996e-01 -1.5547077866757949e+01 -5.0200980280588290e+00 5.2700093380068322e+00 0 0 -1
225 277 10 -8.3399999999999996e-01 -1.6895413414613991e+01 -3.9234499253293422e+00 1.4510896285567931e+00 0 0 0
244 283 9 4.1699999999999998e-01 -1.6244447231659443e+01 2.7634696725850141e+00 6.2547372832812460e+00 0 0 -1
45 45 8 0.0000000000000000e+00 -1.3751993657907249e+01 -6.9027587619209174e-01 3.8382514493203259e+00 0 0 0
31 31 8 0.0000000000000000e+00 -1.0113557284431201e+01 -3.6479896752884753e+00 5.9266834335410143e+00 0 0 0
226 277 9 4.1699999999999998e-01 -1.7084571872401821e+01 -3.3171406412485620e+00 2.2085476754086799e+00 0 0 0
203 269 9 4.1699999999999998e-01 -1.6864485591293420e+01 -5.6353330689267462e+00 1.6307486632919703e+00 0 0 0
200 268 9 4.1699999999999998e-01 -1.6204881344199645e+01 6.8261942759413596e+00 5.1189133883474502e+00 0 -1 0
227 277 9 4.1699999999999998e-01 -1.6188844108387087e+01 -3.4356844928397945e+00 9.9975642587193125e-01 0 0 0
236 280 9 4.1699999999999998e-01 -1.6451266935679730e+01 -2.6594258176821728e+00 4.7051379714398518e+00 0 0 0
234 280 10 -8.3399999999999996e-01 -1.6405296074259045e+01 -2.6045268653135314e+00 3.7372074951118703e+00 0 0 0
17 17 8 0.0000000000000000e+00 -1.3064149956889750e+01 -2.4886513301764306e+00 6.0185461523740171e+00 0 0 -1
64 64 8 0.0000000000000000e+00 -1.0348851084142511e+01 7.1309074160920627e+00 2.8844996132829994e+00 0 0 0
235 280 9 4.1699999999999998e-01 -1.6686111713351121e+01 -1.6609080361780284e+00 3.6218250903306433e+00 0 0 0
218 274 9 4.1699999999999998e-01 -1.9533943913385166e+01 -5.2409200764056809e+00 1.9305093926190910e+00 0 0 -1
679 429 10 -8.3399999999999996e-01 -1.9518652121762827e+01 2.8955524240232813e+00 5.3563850796772812e+00 1 0 -1
210 272 10 -8.3399999999999996e-01 -1.4817346985635442e+01 2.6897980934685128e-01 6.6128546037474543e+00 0 0 -1
714 440 9 4.1699999999999998e-01 -1.8698379297867195e+01 6.0033184214941642e+00 6.1775787871415826e+00 1 0 0
174 260 10 -8.3399999999999996e-01 -1.6773463886335541e+01 5.7255968396120513e+00 6.3028679442556266e+00 0 -1 -1
25 25 8 0.0000000000000000e+00 -1.4583760559283682e+01 -1.8261814975372328e+00 1.3741418356242141e+00 0 0 0
9 9 8 0.0000000000000000e+00 -1.3882297403124060e+01 7.2698858889625644e+00 4.9240336365739101e-01 0 -1 0
267 291 10 -8.3399999999999996e-01 -1.7464426934385155e+01 -3.5037118834774189e-01 2.7960258818578887e+00 0 0 0
241 282 9 4.1699999999999998e-01 -1.8770395047969057e+01 -3.4441321301185779e+00 6.6118086874445048e+00 0 0 0
269 291 9 4.1699999999999998e-01 -1.7421367173582791e+01 -5.3806601849337277e-01 1.8146963512587695e+00 0 0 0
186 264 10 -8.3399999999999996e-01 -1.5806896950082507e+01 -2.2506683873237612e+00 6.4161868551493395e+00 0 0 -1
176 260 9 4.1699999999999998e-01 -1.6498976528469168e+01 4.7588515936845539e+00 6.3398504452593194e+00 0 -1 -1
216 274 10 -8.3399999999999996e-01 -1.9440095635056853e+01 -6.0339943115258423e+00 2.5020174373018911e+00 0 0 -1
187 264 9 4.1699999999999998e-01 -1.5668731218915941e+01 -1.3040984841075371e+00 6.4648801045404918e+00 0 0 -1
188 264 9 4.1699999999999998e-01 -1.6129712619228613e+01 -2.4143118270598509e+00 7.3544557142099087e+00 0 0 -1
276 294 10 -8.3399999999999996e-01 -1.9327274130479285e+01 5.2088936614344643e+00 1.5251404202748939e+00 0 0 0
26 26 8 0.0000000000000000e+00 -1.2215821610698889e+01 -9.5800756259823622e-02 1.4172501538636457e+00 0 0 0
258 288 10 -8.3399999999999996e-01 -1.6415764112223954e+01 5.6684750629853218e+00 1.6391020900919245e-01 0 0 0
278 294 9 4.1699999999999998e-01 -1.9248683652455661e+01 5.8999360549247966e+00 8.7085043507299342e-01 0 0 0
211 272 9 4.1699999999999998e-01 -1.4298173492327662e+01 1.2718660514032792e-01 5.8284154274019144e+00 0 0 -1
277 294 9 4.1699999999999998e-01 -1.8505371856086288e+01 5.3766487758631296e+00 1.9613955888729449e+00 0 0 0
275 293 9 4.1699999999999998e-01 -1.7979079720862007e+01 2.2540036942880359e+00 5.0688321908827891e+00 0 0 0
260 288 9 4.1699999999999998e-01 -1.6332273371676212e+01 6.5777633891346747e+00 4.2204677502821281e-01 0 0 0
273 293 10 -8.3399999999999996e-01 -1.7139428817640518e+01 1.7118821373120925e+00 5.1407633427325168e+00 0 0 0
272 292 9 4.1699999999999998e-01 -1.6466781412589143e+01 4.6542116826356139e+00 1.5224845828595821e+00 0 0 0
42 42 8 0.0000000000000000e+00 -1.2463406927900692e+01 2.8399020347167907e+00 1.9649958814095532e+00 0 0 0
712 440 10 -8.3399999999999996e-01 -1.9676742137314829e+01 6.2182925798930491e+00 6.1939605911248297e+00 1 0 0
46 46 8 0.0000000000000000e+00 -1.3889811339780675e+01 2.2756581834753815e+00 4.4420662900462675e+00 0 0 0
41 41 8 0.0000000000000000e+00 -1.4907929735281703e+01 9.7631558221531878e-01 1.8086464719351312e+00 0 0 0
43 43 8 0.0000000000000000e+00 -1.1382678100360000e+01 1.0039484658025506e+00 4.1283162799459729e+00 0 0 0
49 49 8 0.0000000000000000e+00 -1.2397950127248015e+01 4.5436293536105774e+00 7.1901315560863992e+00 0 0 -1
268 291 9 4.1699999999999998e-01 -1.8032400109075336e+01 4.0870628156752070e-01 2.6712125316592013e+00 0 0 0
58 58 8 0.0000000000000000e+00 -1.2786825265292922e+01 5.6505131879224715e+00 2.4573287577245586e+00 0 0 0
274 293 9 4.1699999999999998e-01 -1.6895324267422659e+01 1.7133121236757181e+00 4.2372429257049848e+00 0 0 0
59 59 8 0.0000000000000000e+00 -1.1526416248023221e+01 3.9647103269979320e+00 4.6041300639239164e+00 0 0 0
48 48 8 0.0000000000000000e+00 -1.1845458965901244e+01 1.7517194166975922e+00 6.7163187184050059e+00 0 0 0
217 274 9 4.1699999999999998e-01 -1.8707379851727957e+01 -6.5851692804968698e+00 2.1606977136005745e+00 0 0 -1
641 416 9 4.1699999999999998e-01 -1.8091853830357227e+01 -6.8977729756113497e+00 1.6907491404098052e-01 1 0 0
121 121 8 0.0000000000000000e+00 -1.0072115219653844e+01 4.4044371401565119e+00 2.1300003969565062e+00 0 0 0
255 287 10 -8.3399999999999996e-01 -1.8553930341808389e+01 2.1697019008472944e+00 2.2923566610270592e+00 0 0 0
617 408 9 4.1699999999999998e-01 -1.8766217830046610e+01 -4.4125420342273705e+00 4.5261492192740906e+00 1 0 -1
256 287 9 4.1699999999999998e-01 -1.7838972550012215e+01 2.7759407551978241e+00 1.9981872463633725e+00 0 0 0
63 63 8 0.0000000000000000e+00 -1.1947645209114400e+01 6.5722220175832557e+00 5.1260540875629061e+00 0 0 0
257 287 9 4.1699999999999998e-01 -1.9367484892392948e+01 2.7516988602711838e+00 2.4066659516582281e+00 0 0 0
61 61 8 0.0000000000000000e+00 -1.4408924846643473e+01 4.9827339701332454e+00 5.1254662671243736e+00 0 0 0
270 292 10 -8.3399999999999996e-01 -1.6631851610979638e+01 4.1098292920277846e+00 2.3452954221275011e+00 0 0 0
60 60 8 0.0000000000000000e+00 -1.1090960740155241e+01 6.2734950085849954e+00 1.4774660033621329e-01 0 0 0
271 292 9 4.1699999999999998e-01 -1.6338747408235406e+01 4.6744094665134623e+00 3.0710294742849489e+00 0 0 0
616 408 10 -8.3399999999999996e-01 -1.9602884907631903e+01 -4.3565509099957955e+00 4.9989091743453891e+00 1 0 -1
243 283 10 -8.3399999999999996e-01 -1.5760499674485922e+01 3.2196571474989111e+00 6.8910737669063682e+00 0 0 -1
175 260 9 4.1699999999999998e-01 -1.6291223407710341e+01 5.9834660515231350e+00 7.1163430452266079e+00 0 -1 -1
247 284 9 4.1699999999999998e-01 -1.7675256944691274e+01 1.3576223165049652e+00 7.1618694783275991e+00 0 0 -1
678 428 9 4.1699999999999998e-01 -1.9399663981439577e+01 -7.2057754708102528e-01 2.8625849458516011e+00 1 0 0
219 275 10 -8.3399999999999996e-01 -1.7898912643166426e+01 -1.3748796707567015e+00 2.3413662713288569e-02 0 0 0
181 262 9 4.1699999999999998e-01 -1.6540902765471891e+01 -6.2402194409494909e+00 7.0754740093862081e+00 0 0 -1
212 272 9 4.1699999999999998e-01 -1.5032353666053300e+01 1.1719739154551980e+00 6.5933213172691678e+00 0 0 -1
346 317 9 4.1699999999999998e-01 -2.2076710300029334e+00 5.8187783456738149e+00 -7.0987812885128658e+00 0 0 1
66 66 8 0.0000000000000000e+00 -8.9299342477881893e+00 -5.7724823533014300e+00 -4.4668158851382636e+00 0 0 0
67 67 8 0.0000000000000000e+00 -5.9336420975304520e+00 -6.5279997974516375e+00 -4.5853042984337016e+00 0 0 0
70 70 8 0.0000000000000000e+00 -7.1388365685887845e+00 -6.0457321618812143e+00 -2.1024049641835858e+00 0 0 0
72 72 8 0.0000000000000000e+00 -4.9694899394723233e+00 -4.2894316814920046e+00 -2.2252482315430822e+00 0 0 0
81 81 8 0.0000000000000000e+00 -8.3920948113906775e+00 -3.6294959415643184e+00 -6.4343760167569242e+00 0 0 0
82 82 8 0.0000000000000000e+00 -7.5597642132931107e+00 -1.1904412170042245e+00 -3.6651364343559996e+00 0 0 0
83 83 8 0.0000000000000000e+00 -6.8424244182927119e+00 -3.9114575987339086e+00 -4.2108540730268773e+00 0 0 0
84 84 8 0.0000000000000000e+00 -6.1027887114216233e+00 -1.6523542509884710e+00 -6.2788838864158443e+00 0 0 0
85 85 8 0.0000000000000000e+00 -7.6419445336716549e+00 -3.2619161358335429e+00 -1.6204169672105877e+00 0 0 0
88 88 8 0.0000000000000000e+00 -5.3509403743393946e+00 -1.4618028240935215e+00 -1.7973378009426768e+00 0 0 0
282 296 10 -8.3399999999999996e-01 -3.0899330431204377e+00 -5.0433482205295936e+00 -4.5766974325487633e+00 0 0 0
284 296 9 4.1699999999999998e-01 -2.5411573351931072e+00 -4.8238844458997336e+00 -5.3155613957134324e+00 0 0 0
288 298 10 -8.3399999999999996e-01 -2.2560071246896807e+00 -1.4561185301232418e+00 -2.5301009400160819e+00 0 0 0
289 298 9 4.1699999999999998e-01 -2.2508385593249156e+00 -2.2235894835199330e+00 -1.8452598768070541e+00 0 0 0
101 101 8 0.0000000000000000e+00 -7.9488887823865273e+00 -4.1454162911898962e-01 -1.0170848632367759e+00 0 0 0
68 68 8 0.0000000000000000e+00 -5.6795447739297131e+00 -4.3868681868167103e+00 -6.8338247010852413e+00 0 0 0
283 296 9 4.1699999999999998e-01 -3.4267771908699109e+00 -4.1447326552188573e+00 -4.2697704472237454e+00 0 0 0
310 305 9 4.1699999999999998e-01 -4.1808503262917487e+00 -1.7104729013839888e+00 -4.7638691748952837e+00 0 0 0
309 305 10 -8.3399999999999996e-01 -3.8217845428164514e+00 -2.5489480612486517e+00 -4.5614876745272888e+00 0 0 0
311 305 9 4.1699999999999998e-01 -3.4045424043667714e+00 -2.3455869294679164e+00 -3.7042189613926757e+00 0 0 0
20 20 8 0.0000000000000000e+00 -9.1792633796146212e+00 -9.7555806338885720e-01 -6.1027101293064776e+00 0 0 0
319 308 9 4.1699999999999998e-01 -2.1767942522689815e-01 2.4162929446130788e+00 -7.0671500155829907e+00 0 0 1
390 332 10 -8.3399999999999996e-01 -2.2800039108083712e+00 -2.7414865788633676e+00 -6.8261381066216638e+00 0 0 0
19 19 8 0.0000000000000000e+00 -9.6235781878056610e+00 -3.0973729830734564e+00 -3.9760636316937217e+00 0 0 0
142 129 1 8.9999999999999997e-02 -2.5791638182370186e-01 -5.9330623738510058e-01 -7.0780787107634957e-01 0 0 0
324 310 10 -8.3399999999999996e-01 -3.2489446180553290e+00 2.7773877016432130e-01 -6.5942972250707452e+00 0 0 0
312 306 10 -8.3399999999999996e-01 -2.6916108718966822e+00 -3.2246695718102498e+00 -5.8882796108769042e-01 0 0 0
320 308 9 4.1699999999999998e-01 -4.5829371203395303e-01 1.6572353235683730e+00 -5.7395209184445415e+00 0 0 1
451 352 9 4.1699999999999998e-01 -2.2200544806832534e-02 -5.0452718493206543e+00 -5.4158891190755378e+00 0 0 0
281 295 9 4.1699999999999998e-01 -1.9307037185973983e+00 -5.7784696965191644e+00 -3.2601201946584029e+00 0 0 0
280 295 9 4.1699999999999998e-01 -2.1248566614709623e+00 -5.7881394235284525e+00 -1.8445231478859720e+00 0 0 0
279 295 10 -8.3399999999999996e-01 -1.4711684281416482e+00 -5.9282975223506309e+00 -2.4418509939386048e+00 0 0 0
330 312 10 -8.3399999999999996e-01 -2.2686932211665307e+00 1.4572240896011266e+00 -1.7103336843715975e+00 0 0 0
65 65 8 0.0000000000000000e+00 -7.7437105769857011e+00 -6.3296092792694951e+00 -6.9704970884083464e+00 0 0 0
392 332 9 4.1699999999999998e-01 -1.5720779647546019e+00 -2.6457276179227640e+00 -6.1569747981178429e+00 0 0 0
332 312 9 4.1699999999999998e-01 -1.8963978885190751e+00 1.5494243386256468e+00 -8.2781690239502159e-01 0 0 0
367 324 9 4.1699999999999998e-01 -1.8316042866273285e+00 -7.1855518119835038e+00 -5.1183376379239967e+00 0 0 0
291 299 10 -8.3399999999999996e-01 -3.2656198702464971e+00 -6.9912181417716788e+00 -3.9509287329446469e-01 0 0 0
450 352 10 -8.3399999999999996e-01 -4.2102959813174712e-01 -5.8868115554148739e+00 -5.1614360409106892e+00 0 0 0
425 343 9 4.1699999999999998e-01 -3.3629215650288713e-01 3.4880772540751264e+00 -8.0494941683945098e-01 0 0 0
290 298 9 4.1699999999999998e-01 -1.6035571521577598e+00 -8.3630332568488075e-01 -2.2104533261644912e+00 0 0 0
331 312 9 4.1699999999999998e-01 -3.1255531732434334e+00 1.0232828032396784e+00 -1.4258452646949447e+00 0 0 0
391 332 9 4.1699999999999998e-01 -3.0532848639597829e+00 -2.4943336079545455e+00 -6.3344212527008041e+00 0 0 0
313 306 9 4.1699999999999998e-01 -3.4488843242652529e+00 -3.7987956909410552e+00 -8.0192314506213613e-01 0 0 0
333 313 10 -8.3399999999999996e-01 -3.4526703931022373e+00 5.8837538586960347e+00 -2.2897631812365655e+00 0 0 0
360 322 10 -8.3399999999999996e-01 -2.8951410439064200e+00 4.1352720670763068e+00 -2.0786698448456994e-01 0 -1 0
368 324 9 4.1699999999999998e-01 -3.2856440857222067e+00 -6.9872294919291580e+00 -5.0769303082662880e+00 0 0 0
79 79 8 0.0000000000000000e+00 -5.0728309697587903e+00 -7.1101016605263858e+00 -7.3184184842615512e+00 0 0 1
361 322 9 4.1699999999999998e-01 -3.3991862368897605e+00 4.7063171350327595e+00 -8.3672661482239941e-01 0 -1 0
334 313 9 4.1699999999999998e-01 -2.7661932725335303e+00 6.1533597510476170e+00 -2.8515590503581039e+00 0 0 0
366 324 10 -8.3399999999999996e-01 -2.6387113235843218e+00 7.0982459543286902e+00 -5.1257522004141620e+00 0 -1 0
335 313 9 4.1699999999999998e-01 -3.6133706293365733e+00 6.6555583042235797e+00 -1.6790679548713243e+00 0 0 0
315 307 10 -8.3399999999999996e-01 -1.7520547816329644e+00 9.2273324301213722e-01 -4.5889721918723998e+00 0 0 0
316 307 9 4.1699999999999998e-01 -1.8677324848272177e+00 1.6928130796615763e+00 -3.9078039836281064e+00 0 0 0
358 321 9 4.1699999999999998e-01 -2.4519444952559462e+00 5.3251101116405408e+00 -5.2819984312436530e+00 0 0 1
317 307 9 4.1699999999999998e-01 -1.8889163509961866e+00 1.0678584112765438e-01 -4.0331406710951914e+00 0 0 0
306 304 10 -8.3399999999999996e-01 -2.9932370558346970e+00 3.4207233926019471e+00 -3.3490427682021275e+00 0 0 0
326 310 9 4.1699999999999998e-01 -2.5277588487493170e+00 4.9514839884949741e-01 -5.9700058932999571e+00 0 0 0
308 304 9 4.1699999999999998e-01 -2.7866677390956678e+00 2.9462458422723157e+00 -2.5322479751856148e+00 0 0 0
357 321 10 -8.3399999999999996e-01 -2.1742260017929893e+00 4.5671567395662542e+00 -5.7118765391200448e+00 0 0 1
307 304 9 4.1699999999999998e-01 -3.4368369480553413e+00 4.2196090589459496e+00 -2.9668110925919398e+00 0 0 0
69 69 8 0.0000000000000000e+00 -9.3460241832168052e+00 7.0410957324733294e+00 -2.3013589468621571e+00 0 -1 0
359 321 9 4.1699999999999998e-01 -2.3468997596795886e+00 3.8840501766810642e+00 -4.9973537677048760e+00 0 0 1
97 97 8 0.0000000000000000e+00 -7.1402434146705529e+00 9.3972008602985801e-01 -6.0049024853632824e+00 0 0 0
98 98 8 0.0000000000000000e+00 -8.0604530428474046e+00 1.5267404586090354e+00 -3.3098462919961831e+00 0 0 0
99 99 8 0.0000000000000000e+00 -5.2015148584241127e+00 5.2330979549460566e-01 -3.9716763396844739e+00 0 0 0
100 100 8 0.0000000000000000e+00 -4.9564075500832265e+00 2.7779098494423429e+00 -5.8894275315364801e+00 0 0 0
102 102 8 0.0000000000000000e+00 -8.2941454311704295e+00 2.3895008788624095e+00 -7.0413086859988194e-01 0 0 0
104 104 8 0.0000000000000000e+00 -5.6598069268615490e+00 1.3183963450577838e+00 -1.1437832547393445e+00 0 0 0
113 113 8 0.0000000000000000e+00 -7.7360829953372896e+00 3.5910173310102906e+00 -5.6289141964434117e+00 0 0 0
114 114 8 0.0000000000000000e+00 -8.3672038624974405e+00 6.2744196482837262e+00 -4.9882776806369584e+00 0 0 0
115 115 8 0.0000000000000000e+00 -6.0239175135335428e+00 3.3012084229072234e+00 -3.2579039569328199e+00 0 0 0
116 116 8 0.0000000000000000e+00 -5.5839462555740988e+00 5.5134423183353052e+00 -5.1875989353792846e+00 0 0 0
117 117 8 0.0000000000000000e+00 -8.8065278170739045e+00 4.2178626264949886e+00 -2.9420545770658300e+00 0 0 0
118 118 8 0.0000000000000000e+00 -8.5648300215991569e+00 5.2049454177497454e+00 -1.0930091389083117e-01 0 0 0
119 119 8 0.0000000000000000e+00 -5.9988183350233539e+00 4.0831733267128927e+00 -5.3780296015473361e-01 0 0 0
120 120 8 0.0000000000000000e+00 -6.5973613226997028e+00 5.9603256175052106e+00 -2.6590863602619357e+00 0 0 0
325 310 9 4.1699999999999998e-01 -3.4478457311624062e+00 1.1718630047849450e+00 -6.9292769665571150e+00 0 0 0
396 334 10 -8.3399999999999996e-01 -2.3258973153461881e-02 -2.7900724250651163e+00 -5.3924359442197929e+00 0 0 0
328 311 9 4.1699999999999998e-01 -1.9581179540492393e+00 3.3666466407967204e+00 -7.3706111542999659e+00 0 0 0
87 87 8 0.0000000000000000e+00 -6.6476347541941765e+00 -2.2533543875731175e+00 9.0928644783282564e-01 0 0 0
76 76 8 0.0000000000000000e+00 -6.3778478935948764e+00 -5.0335018900345334e+00 4.3773458328653370e-01 0 0 0
411 339 10 -8.3399999999999996e-01 -1.9278026013659968e+00 -5.0230809869539508e+00 6.4129231660643091e+00 0 1 -1
92 92 8 0.0000000000000000e+00 -4.1711108493394029e+00 -4.4441878857652961e-01 4.7890900129408881e-01 0 0 0
130 129 5 -2.8000000000000003e-01 -1.2978724726482693e+00 -2.6271666138830092e+00 2.6282679559101334e+00 0 0 0
73 73 8 0.0000000000000000e+00 -8.8657610639132880e+00 -6.5891793711943940e+00 2.8855643715600898e-01 0 0 0
74 74 8 0.0000000000000000e+00 -8.0630721461858474e+00 -5.6903268031403158e+00 2.9074946598767775e+00 0 0 0
75 75 8 0.0000000000000000e+00 -5.4876115717122831e+00 -6.8042679857721122e+00 2.5130429938232299e+00 0 0 0
78 78 8 0.0000000000000000e+00 -7.5943080890359456e+00 -4.4118760692915888e+00 5.5342811942546133e+00 0 0 0