LAMMPS data file via write_data, version 16 Mar 2018, timestep = 500000

714 atoms
12 atom types
403 bonds
8 bond types
260 angles
13 angle types
132 dihedrals
18 dihedral types

-1.9136423946025680e+01 1.9136423946025680e+01 xlo xhi
-7.1761591252809538e+00 7.1761591252809538e+00 ylo yhi
-7.1761591252809538e+00 7.1761591252809538e+00 zlo zhi

Masses

1 1.008
2 1.008
3 12.011
4 12.011
5 15.9994
6 15.9994
7 32.06
8 196.966
9 1.008
10 15.9994
11 35.45
12 22.9898

Pair Coeffs # lj/charmmfsw/coul/long

1 0.028 2.38761 0.028 2.38761
2 0.024 2.38761 0.024 2.38761
3 0.056 3.58141 0.01 3.38542
4 0.078 3.63487 0.01 3.38542
5 0.1 2.93997 0.1 2.93997
6 0.12 3.02906 0.12 3.02906
7 0.47 3.74177 0.47 3.74177
8 5.29 2.62904 5.29 2.62904
9 0.046 0.400014 0.046 0.400014
10 0.1521 3.15057 0.1521 3.15057
11 0.15 4.04468 0.15 4.04468
12 0.0469 2.42993 0.0469 2.42993

Bond Coeffs # harmonic

1 222.5 1.53
2 222.5 1.528
3 309 1.111
4 340 1.43
5 322 1.111
6 450 0.9572
7 540 1.448
8 250 1.575

Angle Coeffs # charmm

1 58.35 113.6 11.16 2.561
2 58 115 8 2.561
3 26.5 110.1 22.53 2.179
4 75.7 110.1 0 0
5 34.6 110.1 22.53 2.179
6 15 109 27 1.9
7 34.6 110.1 22.53 2.179
8 35.5 109 5.4 1.802
9 60 109.5 0 0
10 35.5 108.4 5.4 1.802
11 55 104.52 0 0
12 130 109.47 35 2.45
13 85 98 0 0

Dihedral Coeffs # charmmfsw

1 0.101 2 0 1
2 0.142 3 180 0
3 0.074 4 0 0
4 0.097 5 0 0
5 0.162 2 0 1
6 0.047 3 180 0
7 0.105 4 0 0
8 0.177 5 0 0
9 0.19 3 0 1
10 0 3 0 1
11 0.16 3 0 1
12 0 3 0 1
13 0 3 0 1
14 0.19 3 0 1
15 0.19 3 0 1
16 0.19 3 0 1
17 0.16 3 0 1
18 0 3 0 1

Atoms # full

3 3 8 0.0000000000000000e+00 -1.1631745199597137e+01 -6.5185941921847999e+00 -6.1295792854085747e+00 0 0 0
2 2 8 0.0000000000000000e+00 -1.3957608778573958e+01 -4.8185033622314384e+00 -6.6313430814546486e+00 0 0 0
492 366 10 -8.3399999999999996e-01 -1.6812159289861732e+01 -1.3899728745820918e+00 -4.0767894723681124e+00 1 -3 -1
173 259 9 4.1699999999999998e-01 -1.5950481347769092e+01 -4.9363058082005793e+00 -5.0856666034976143e+00 0 0 5
394 333 9 4.1699999999999998e-01 -1.8804123909655456e+01 -3.4190064084823177e+00 -4.9093418603082064e+00 1 2 1
494 366 9 4.1699999999999998e-01 -1.7099853078508453e+01 -1.1562188744880946e+00 -4.9592990775962953e+00 1 -3 -1
21 21 8 0.0000000000000000e+00 -1.4000612246008984e+01 -2.1058201233993081e+00 -5.4913797878260757e+00 0 0 0
470 358 9 4.1699999999999998e-01 -1.4749523495027031e+01 -3.9873231794945685e+00 -2.3259671931368655e+00 1 5 4
468 358 10 -8.3399999999999996e-01 -1.5392743039586176e+01 -3.5560734320786658e+00 -2.8885719507249643e+00 1 5 4
6 6 8 0.0000000000000000e+00 -1.3558165872745297e+01 -5.9701843099208487e+00 -3.6989603486307172e+00 0 0 0
291 299 10 -8.3399999999999996e-01 -1.6537914490803228e+01 -1.0805463404046574e+00 -6.5887415965664671e+00 1 -2 -2
10 10 8 0.0000000000000000e+00 -1.3260743171877440e+01 -4.7744776396232043e+00 -7.0839619261454634e-01 0 0 0
401 335 9 4.1699999999999998e-01 -1.7291988008472369e+01 -5.5463218889963919e+00 -1.7416739990721875e+00 1 -1 1
469 358 9 4.1699999999999998e-01 -1.5648423265526990e+01 -4.2285035578968317e+00 -3.5199966825217115e+00 1 5 4
171 259 10 -8.3399999999999996e-01 -1.6494522979945131e+01 -4.1751430873934785e+00 -5.2878592304534688e+00 0 0 5
399 335 10 -8.3399999999999996e-01 -1.6597630521729993e+01 -6.1684960732705596e+00 -1.5248818941472739e+00 1 -1 1
568 391 9 4.1699999999999998e-01 -1.8593978702990690e+01 -3.7961054486321544e+00 -2.5418121779864635e+00 1 6 1
453 353 10 -8.3399999999999996e-01 -1.6842954978513600e+01 -2.0683505135418150e+00 -6.7587266778042476e-01 1 0 0
23 23 8 0.0000000000000000e+00 -1.1788460220604438e+01 -3.8614741051483219e+00 -5.0385449791371650e+00 0 0 0
25 25 8 0.0000000000000000e+00 -1.1848023743630474e+01 -9.8313745998237445e-01 -4.3339696923148505e+00 0 0 0
400 335 9 4.1699999999999998e-01 -1.6735617030982368e+01 -6.9009680022937543e+00 -2.1254453317498738e+00 1 -1 1
697 435 10 -8.3399999999999996e-01 -1.9104420377548546e+01 -1.9932143640792326e+00 -2.3718015026667030e+00 1 1 4
45 45 8 0.0000000000000000e+00 -1.3860516173938105e+01 -7.8432848315579018e-01 -2.4088495390243700e+00 0 0 0
455 353 9 4.1699999999999998e-01 -1.6535246879619102e+01 -2.6688224624894716e+00 -1.3548284876765653e+00 1 0 0
567 391 10 -8.3399999999999996e-01 -1.8709325610823935e+01 -4.7457684983004080e+00 -2.5744775459749936e+00 1 6 1
172 259 9 4.1699999999999998e-01 -1.6464870795498911e+01 -4.1056268170077894e+00 -6.2420709885231496e+00 0 0 5
493 366 9 4.1699999999999998e-01 -1.6185044148992898e+01 -2.1008997019348068e+00 -4.2092337811698766e+00 1 -3 -1
293 299 9 4.1699999999999998e-01 -1.5632092072541058e+01 -9.3763245860241784e-01 -6.3143455098142542e+00 1 -2 -2
26 26 8 0.0000000000000000e+00 -1.1663809158626744e+01 -2.5206660895745627e+00 -1.7278778052511701e+00 0 0 0
405 337 10 -8.3399999999999996e-01 -1.5772292899064064e+01 -6.7987607350855752e+00 -5.4328854851217478e+00 1 1 2
454 353 9 4.1699999999999998e-01 -1.7340376999527638e+01 -2.6216349352177661e+00 -7.3643872125048498e-02 1 0 0
386 330 9 4.1699999999999998e-01 -1.8267303140869345e+01 -6.2266801671923195e+00 -3.6736525509746354e+00 1 0 4
699 435 9 4.1699999999999998e-01 -1.8352060765260667e+01 -1.5850443783009578e+00 -2.8002686781096116e+00 1 1 4
384 330 10 -8.3399999999999996e-01 -1.8145745735856217e+01 -7.0957066542741849e+00 -4.0560771901732329e+00 1 0 4
406 337 9 4.1699999999999998e-01 -1.6288149711363388e+01 -6.5436160806727317e+00 -6.1977546209423222e+00 1 1 2
385 330 9 4.1699999999999998e-01 -1.8782111186230768e+01 -7.1348715171512831e+00 -4.7700358508641747e+00 1 0 4
227 277 9 4.1699999999999998e-01 -1.5596859326784013e+01 -9.1551750291469947e-02 -4.1486173118801224e+00 0 -2 -3
17 17 8 0.0000000000000000e+00 -1.3651807440537228e+01 -2.3971736796311882e+00 5.8767794122845949e+00 0 0 -1
583 397 10 -8.3399999999999996e-01 -1.6445852731207101e+01 -3.7376726062758308e+00 3.6657981420546575e+00 1 4 -1
33 33 8 0.0000000000000000e+00 -1.1794855034181603e+01 -4.5177822840475812e-01 4.9034667419781242e+00 0 0 -1
14 14 8 0.0000000000000000e+00 -1.3985002974940018e+01 -3.9173591247093236e+00 2.0231351837185905e+00 0 0 0
644 417 9 4.1699999999999998e-01 -1.5583373698160807e+01 -1.2176479732209717e+00 4.4294098055526083e+00 1 3 -2
643 417 10 -8.3399999999999996e-01 -1.6194506249506315e+01 -1.0696354369293268e+00 5.1511030465340504e+00 1 3 -2
29 29 8 0.0000000000000000e+00 -1.3443946923899883e+01 -1.6866186958633451e+00 3.9737794014990402e-01 0 0 0
31 31 8 0.0000000000000000e+00 -1.1677996779826485e+01 -3.0618834719131085e+00 3.7369547096641904e+00 0 0 0
230 278 9 4.1699999999999998e-01 -1.8089054769052510e+01 -2.2126645410445747e+00 3.1509524025697182e+00 0 -3 -1
529 378 9 4.1699999999999998e-01 -1.6480566809884763e+01 -3.4712573775728064e+00 5.4937432455373143e+00 1 -7 -1
30 30 8 0.0000000000000000e+00 -1.3993555561163566e+01 -1.3137295896625290e+00 3.2409219786926506e+00 0 0 0
15 15 8 0.0000000000000000e+00 -1.1966947528282294e+01 -5.8570391696999424e+00 2.4265091144506652e+00 0 0 0
675 427 9 4.1699999999999998e-01 -1.6784554496981443e+01 -6.0669469973131571e+00 4.8696302577815871e+00 1 1 -1
1 1 8 0.0000000000000000e+00 -1.3825112641857517e+01 -5.0618554520720291e+00 4.6767277896184396e+00 0 0 -1
292 299 9 4.1699999999999998e-01 -1.6500681753833600e+01 -1.0875141886437185e+00 6.8071264364860760e+00 1 -2 -3
458 354 9 4.1699999999999998e-01 -1.6882553366989622e+01 -5.3523832898586710e+00 1.4710512645283327e+00 1 -3 2
673 427 10 -8.3399999999999996e-01 -1.6959159429315044e+01 -6.3277887909738677e+00 5.7739015305767953e+00 1 1 -1
266 290 9 4.1699999999999998e-01 -1.7942723388179008e+01 -6.9344421815544850e+00 2.7108853250815765e+00 0 5 2
584 397 9 4.1699999999999998e-01 -1.5719396930423640e+01 -3.5609185891959068e+00 3.0680926725756605e+00 1 4 -1
700 436 10 -8.3399999999999996e-01 -1.9097124572537304e+01 -4.4907088545157627e+00 2.8527566157079103e+00 1 -1 2
228 278 10 -8.3399999999999996e-01 -1.8342178841832929e+01 -1.3221386423745549e+00 2.9077988082579127e+00 0 -3 -1
264 290 10 -8.3399999999999996e-01 -1.7062326976394651e+01 -6.5767190060289131e+00 2.8256378033562273e+00 0 5 2
13 13 8 0.0000000000000000e+00 -1.4337355237469341e+01 -6.8158588306686161e+00 1.0589959066283561e+00 0 0 0
585 397 9 4.1699999999999998e-01 -1.7140372025284339e+01 -4.0818990317857402e+00 3.1042084679554804e+00 1 4 -1
296 300 9 4.1699999999999998e-01 -1.6723952991616024e+01 -5.8204788868338764e-01 6.2315570281847987e-01 1 -2 -2
456 354 10 -8.3399999999999996e-01 -1.6609144563183982e+01 -4.7255213539199890e+00 8.0133223167734458e-01 1 -3 2
674 427 9 4.1699999999999998e-01 -1.7088051481525380e+01 -5.5023769454623110e+00 6.2411423535616404e+00 1 1 -1
295 300 9 4.1699999999999998e-01 -1.7300677241438581e+01 -3.0666179516411435e-01 1.9955429775609499e+00 1 -2 -2
457 354 9 4.1699999999999998e-01 -1.6423621548463903e+01 -5.2627985420634227e+00 3.1172328301917039e-02 1 -3 2
4 4 8 0.0000000000000000e+00 -1.1517645955295013e+01 -4.3301988375352174e+00 6.3844839811583700e+00 0 0 -1
52 52 8 0.0000000000000000e+00 -1.1549372124153235e+01 -6.9417314365696825e+00 5.1803342180097474e+00 0 1 -1
528 378 10 -8.3399999999999996e-01 -1.6886292922313842e+01 -3.7895857252628464e+00 6.3001458922903151e+00 1 -7 -1
645 417 9 4.1699999999999998e-01 -1.7055616326468897e+01 -1.2609231633048696e+00 4.7794442225682490e+00 1 3 -2
530 378 9 4.1699999999999998e-01 -1.7586971652901546e+01 -3.1627222035091815e+00 6.4799326611224064e+00 1 -7 -1
702 436 9 4.1699999999999998e-01 -1.9086706964899278e+01 -4.4116425670536596e+00 1.8988845927598113e+00 1 -1 2
294 300 10 -8.3399999999999996e-01 -1.6631753043227580e+01 -4.7084354160328648e-03 1.3810542231872054e+00 1 -2 -2
342 316 10 -8.3399999999999996e-01 -1.9130871976127082e+01 2.2886012278484147e+00 -2.2070308314761927e-01 1 5 3
34 34 8 0.0000000000000000e+00 -1.3266972638084896e+01 2.9840095321900657e+00 -6.3920502254323361e+00 0 0 0
225 277 10 -8.3399999999999996e-01 -1.5101037648360572e+01 5.6004819662714345e-01 -4.6444098220650565e+00 0 -2 -3
288 298 10 -8.3399999999999996e-01 -1.6889852000665162e+01 3.5603787688276847e+00 -1.8383163070692905e+00 1 3 0
41 41 8 0.0000000000000000e+00 -1.2419006907752646e+01 1.6278237811842597e+00 -3.3734753112914047e+00 0 0 0
198 268 10 -8.3399999999999996e-01 -1.8877716488819683e+01 6.5203571209391473e+00 -6.6820695826357284e+00 0 -1 2
9 9 8 0.0000000000000000e+00 -1.4778238477750769e+01 5.9137573667255570e+00 -2.6418641528284570e+00 0 -1 0
11 11 8 0.0000000000000000e+00 -1.2609954001882141e+01 6.9150766852917132e+00 -1.2141097826631810e+00 0 -1 0
57 57 8 0.0000000000000000e+00 -1.4683205907140623e+01 3.3129054976372592e+00 -3.6594386958665259e+00 0 0 0
497 367 9 4.1699999999999998e-01 -1.8280064745580177e+01 4.4017572146856274e+00 -4.7732874482036394e+00 1 3 -3
42 42 8 0.0000000000000000e+00 -1.4113362485868088e+01 2.0486490611314658e+00 -1.1703498553370444e+00 0 0 0
574 394 10 -8.3399999999999996e-01 -1.7159711077397162e+01 5.8858305039962273e+00 -1.6284671117657953e-01 1 0 0
289 298 9 4.1699999999999998e-01 -1.6572571600658097e+01 2.6581629558647402e+00 -1.8779601557166774e+00 1 3 0
54 54 8 0.0000000000000000e+00 -1.2444744770338342e+01 4.2192198934045759e+00 -2.2395372049274460e+00 0 0 0
195 267 10 -8.3399999999999996e-01 -1.5740131099575255e+01 4.7567042180667594e+00 -6.3887715242975531e+00 0 1 1
343 316 9 4.1699999999999998e-01 -1.8486564547890662e+01 2.7602768370549513e+00 -7.4854955499939113e-01 1 5 3
197 267 9 4.1699999999999998e-01 -1.6369152638244834e+01 4.2968080092304515e+00 -5.8328405738685918e+00 0 1 1
53 53 8 0.0000000000000000e+00 -1.3404025184435550e+01 5.6937252500255084e+00 -5.1024852559663083e+00 0 0 0
22 22 8 0.0000000000000000e+00 -1.3596000815120057e+01 1.9891705677530927e-01 -7.1229919913929720e+00 0 0 0
219 275 10 -8.3399999999999996e-01 -1.6515904265517197e+01 9.1799883354198186e-01 -2.0465856025031584e+00 0 4 -1
261 289 10 -8.3399999999999996e-01 -1.8765622509305860e+01 1.5230712840781446e+00 -3.4559796443101130e+00 0 3 0
226 277 9 4.1699999999999998e-01 -1.4931163793553793e+01 1.2616307478947471e+00 -4.0157949658866601e+00 0 -2 -3
290 298 9 4.1699999999999998e-01 -1.7036327253543028e+01 3.8036474484716991e+00 -2.7524263726711560e+00 1 3 0
495 367 10 -8.3399999999999996e-01 -1.7538573797279330e+01 4.6850305958604954e+00 -4.2383302480842913e+00 1 3 -3
616 408 10 -8.3399999999999996e-01 -1.9098585515808910e+01 3.5625158208820071e+00 -6.7634086851682600e+00 1 2 -1
43 43 8 0.0000000000000000e+00 -1.1725223925100950e+01 2.5789140568422303e-01 -8.3928681888974055e-01 0 0 0
496 367 9 4.1699999999999998e-01 -1.7509465957564771e+01 5.6349771328060339e+00 -4.3522870517216727e+00 1 3 -3
618 408 9 4.1699999999999998e-01 -1.8383245949424754e+01 2.9296281744721093e+00 -6.8264514138860353e+00 1 2 -1
221 275 9 4.1699999999999998e-01 -1.7179490547128523e+01 8.8653800290631390e-01 -2.7357120836079862e+00 0 4 -1
576 394 9 4.1699999999999998e-01 -1.7094012417902196e+01 5.1929429297727898e+00 -8.1997861293867680e-01 1 0 0
200 268 9 4.1699999999999998e-01 -1.8010704203165087e+01 6.2532653693866092e+00 -6.9873293649720667e+00 0 -1 2
575 394 9 4.1699999999999998e-01 -1.6928686343537876e+01 6.6862744213674947e+00 -6.3417350618488910e-01 1 0 0
58 58 8 0.0000000000000000e+00 -1.4199094427241342e+01 4.8393926042625690e+00 -9.6680846368194837e-02 0 0 0
509 371 9 4.1699999999999998e-01 -1.8542233759393188e+01 2.6097988477929401e-01 -5.8075142265254494e+00 1 1 3
407 337 9 4.1699999999999998e-01 -1.5860370076966758e+01 6.6013485270415906e+00 -5.3907868661325180e+00 1 0 2
220 275 9 4.1699999999999998e-01 -1.6382772559679491e+01 2.8293146044404659e-03 -1.7996594164448847e+00 0 4 -1
49 49 8 0.0000000000000000e+00 -1.4102231311362891e+01 1.3654865837560950e+00 4.4387339653224025e+00 0 0 -1
594 400 9 4.1699999999999998e-01 -1.6681373959247896e+01 1.5107476106234419e+00 3.2450314026390075e+00 1 -4 2
62 62 8 0.0000000000000000e+00 -1.3661663658487734e+01 6.4906184353697132e+00 3.6414530775811866e+00 0 0 0
465 357 10 -8.3399999999999996e-01 -1.8795930423394509e+01 3.5619098928938548e+00 2.1432182398992654e+00 1 0 4
451 352 9 4.1699999999999998e-01 -1.6334752943016287e+01 5.7559509305125625e+00 1.8163904097834294e+00 1 -5 5
450 352 10 -8.3399999999999996e-01 -1.6213062709223852e+01 5.2018479307732202e+00 2.5873594086829064e+00 1 -5 5
61 61 8 0.0000000000000000e+00 -1.3609509558060951e+01 3.5658198364725804e+00 2.5039237064975914e+00 0 0 0
64 64 8 0.0000000000000000e+00 -1.2052620023730325e+01 5.7572128223167631e+00 1.4778342705104341e+00 0 0 0
46 46 8 0.0000000000000000e+00 -1.3534822378541827e+01 9.3337345197160104e-01 1.4804645061818051e+00 0 0 0
254 286 9 4.1699999999999998e-01 -1.5985311662973752e+01 1.7438709425807006e+00 6.9659804279498827e+00 0 1 -3
265 290 9 4.1699999999999998e-01 -1.6512653726584276e+01 7.0105388092331049e+00 2.9952659005906717e+00 0 4 2
592 400 10 -8.3399999999999996e-01 -1.7323136058002767e+01 1.4612797043816363e+00 3.9534988866138989e+00 1 -4 2
452 352 9 4.1699999999999998e-01 -1.5611973152339820e+01 4.5157060645252134e+00 2.2973033317944664e+00 1 -5 5
309 305 10 -8.3399999999999996e-01 -1.6205452735142405e+01 2.7634353982853157e+00 1.0730171949710383e+00 1 -1 5
310 305 9 4.1699999999999998e-01 -1.5996712758305813e+01 1.8315712037290290e+00 1.0075298944732300e+00 1 -1 5
51 51 8 0.0000000000000000e+00 -1.1592987535735968e+01 2.4124923356665966e+00 5.8367409600716442e+00 0 0 -1
196 267 9 4.1699999999999998e-01 -1.6034062952298285e+01 4.5783567252238253e+00 7.0702225524961380e+00 0 1 0
547 384 9 4.1699999999999998e-01 -1.6819760430469191e+01 6.1848403951659741e+00 5.6217058480632414e+00 1 1 5
59 59 8 0.0000000000000000e+00 -1.1825400255078689e+01 3.0568956264301201e+00 3.9305699856898940e-01 0 0 0
546 384 10 -8.3399999999999996e-01 -1.6920745940575255e+01 5.2457504773048909e+00 5.4663227907858207e+00 1 1 5
593 400 9 4.1699999999999998e-01 -1.8022927834569639e+01 2.0568110732562288e+00 3.6854211007168094e+00 1 -4 2
50 50 8 0.0000000000000000e+00 -1.3762130151451137e+01 4.2279222675243204e+00 5.3383727143213697e+00 0 0 -1
467 357 9 4.1699999999999998e-01 -1.8300753869111244e+01 4.2969512280838540e+00 2.5048067583412834e+00 1 0 4
5 5 8 0.0000000000000000e+00 -1.3934220101597445e+01 6.9175281094189751e+00 6.5316835085597473e+00 0 -1 -1
548 384 9 4.1699999999999998e-01 -1.6877815924159652e+01 5.1540090375956309e+00 4.5144969860963036e+00 1 1 5
56 56 8 0.0000000000000000e+00 -1.1577406314443110e+01 5.1792029536315223e+00 7.0041914718426925e+00 0 0 -1
311 305 9 4.1699999999999998e-01 -1.6290467324129800e+01 3.0547027270193139e+00 1.6518036853535872e-01 1 -1 5
705 437 9 4.1699999999999998e-01 -1.8756431013978549e+01 6.0103106011459917e-01 4.9241492709962911e+00 1 4 1
253 286 9 4.1699999999999998e-01 -1.6825245510922027e+01 1.7189358297094528e+00 5.7067010453133564e+00 0 1 -3
466 357 9 4.1699999999999998e-01 -1.8203328861139330e+01 3.1638518639108533e+00 1.5055623484793925e+00 1 0 4
252 286 10 -8.3399999999999996e-01 -1.6842079283098411e+01 1.9971480270221209e+00 6.6224228582088065e+00 0 1 -3
18 18 8 0.0000000000000000e+00 -1.1350598178962850e+01 -1.7275536844682058e+00 -7.0472748681539708e+00 0 0 0
89 89 8 0.0000000000000000e+00 -9.0194797032051977e+00 -4.1503988840655133e+00 -9.1576498145256702e-01 0 0 0
85 85 8 0.0000000000000000e+00 -7.0351703257200757e+00 -2.4907516599348392e+00 -4.8526807981487226e+00 0 0 0
8 8 8 0.0000000000000000e+00 -9.5301741550596937e+00 -5.8140267581068263e+00 -4.6371553704905786e+00 0 0 0
19 19 8 0.0000000000000000e+00 -9.1655960205049833e+00 -3.3779699998069934e+00 -6.4569528742907014e+00 0 0 0
83 83 8 0.0000000000000000e+00 -4.6729946486293894e+00 -4.1815805173481300e+00 -4.3454008626016831e+00 0 0 0
24 24 8 0.0000000000000000e+00 -9.1420434535920556e+00 -7.4924321157077256e-01 -5.4745699811947945e+00 0 0 0
28 28 8 0.0000000000000000e+00 -9.6340040433366223e+00 -2.9859518609410884e-01 -2.7332217856990280e+00 0 0 0
12 12 8 0.0000000000000000e+00 -1.1157056070255212e+01 -5.1427681597597061e+00 -2.4675010587319441e+00 0 0 0
66 66 8 0.0000000000000000e+00 -6.9310098109687477e+00 -5.2069592779531524e+00 -5.9169412290872021e+00 0 0 0
76 76 8 0.0000000000000000e+00 -4.9129844980828148e+00 -6.5898967910246000e+00 -2.7322538327043850e+00 0 0 0
86 86 8 0.0000000000000000e+00 -9.5169128989973704e+00 -2.8977489100711042e+00 -3.5836395903341050e+00 0 0 0
87 87 8 0.0000000000000000e+00 -4.8787776133991931e+00 -1.5379368264405779e+00 -3.3569549653737081e+00 0 0 0
70 70 8 0.0000000000000000e+00 -7.3620055029687341e+00 -4.7763795430350173e+00 -3.0883872813180875e+00 0 0 0
91 91 8 0.0000000000000000e+00 -5.1504514921494584e+00 -3.7782264906923020e+00 -1.5694908750534664e+00 0 0 0
90 90 8 0.0000000000000000e+00 -7.3792607332980769e+00 -1.9907792567215328e+00 -1.9707261415138377e+00 0 0 0
88 88 8 0.0000000000000000e+00 -5.0753828572994317e+00 -3.6851957245269895e-01 -6.0068181525062299e+00 0 0 0
96 96 8 0.0000000000000000e+00 -5.1265276826389359e+00 -1.0531563907299151e+00 -4.5321443713048326e-01 0 0 0
75 75 8 0.0000000000000000e+00 -6.5790440262165122e+00 -5.8809961813825469e+00 -4.6190642199696186e-01 0 0 0
72 72 8 0.0000000000000000e+00 -4.6646296308984754e+00 -7.0353505505475109e+00 -5.6140053706198954e+00 0 0 0
73 73 8 0.0000000000000000e+00 -8.7913179000333130e+00 -6.9362709776794951e+00 -1.9955400816198792e+00 0 0 0
84 84 8 0.0000000000000000e+00 -5.1248474832244311e+00 -3.2627776781789550e+00 -7.0208339648908797e+00 0 0 0
27 27 8 0.0000000000000000e+00 -9.4678001503159486e+00 -1.4686206629981402e+00 -1.4148338170541036e-01 0 0 0
79 79 8 0.0000000000000000e+00 -7.5377080267364507e+00 -6.5769421304555040e+00 4.4632960700785889e+00 0 0 0
550 385 9 4.1699999999999998e-01 -3.8337443120020289e+00 -2.3108568479600158e+00 4.7656210345042318e+00 0 0 -1
81 81 8 0.0000000000000000e+00 -7.4031887258621065e+00 -4.0200499320766792e+00 5.6742592158396983e+00 0 0 -1
109 109 8 0.0000000000000000e+00 -7.4216081380381151e+00 -4.1128780708102591e-01 1.4176028285376463e+00 0 0 0
67 67 8 0.0000000000000000e+00 -5.1029392528229973e+00 -5.8252465281249313e+00 6.2257429651946632e+00 0 0 -1
95 95 8 0.0000000000000000e+00 -6.9197801950020947e+00 -3.1059125514292472e+00 6.9773387537870424e-01 0 0 0
318 308 10 -8.3399999999999996e-01 -4.4281575970800580e+00 -4.9361525455959390e+00 1.0071030876192038e+00 0 0 0
94 94 8 0.0000000000000000e+00 -6.7824181319805730e+00 -1.6525744562055755e+00 4.0023011305371101e+00 0 0 0
93 93 8 0.0000000000000000e+00 -8.9731298836799578e+00 -2.6341564074538306e+00 2.6511844227899188e+00 0 0 0
74 74 8 0.0000000000000000e+00 -1.0492963598663069e+01 -6.3707396309239437e+00 1.4257312824919027e-01 0 0 0
303 303 10 -8.3399999999999996e-01 -3.9802298236803249e+00 -2.4843436353708923e+00 1.9565379426468918e+00 0 2 0
68 68 8 0.0000000000000000e+00 -6.1441516269778731e+00 -4.4445722226666611e+00 3.2501943412625836e+00 0 0 -1
65 65 8 0.0000000000000000e+00 -9.1960392439730008e+00 -6.1252622000223340e+00 6.8256630525561865e+00 0 0 -1
78 78 8 0.0000000000000000e+00 -9.8238358205443319e+00 -4.9413004271899332e+00 4.2854917544652933e+00 0 0 0
20 20 8 0.0000000000000000e+00 -9.5130883231124486e+00 -2.1497354444836922e+00 5.3049866171568265e+00 0 0 -1
80 80 8 0.0000000000000000e+00 -8.4623451571177224e+00 -5.3406144111199074e+00 1.7594517718261236e+00 0 0 0
82 82 8 0.0000000000000000e+00 -7.1991829579928970e+00 -1.3006637084955468e+00 6.8000818421718634e+00 0 0 -1
32 32 8 0.0000000000000000e+00 -1.1269329406830174e+01 -8.6485135479332598e-01 1.9289598864006057e+00 0 0 0
16 16 8 0.0000000000000000e+00 -1.1214404513495058e+01 -3.5592585040280831e+00 1.0070791315828400e+00 0 0 0
319 308 9 4.1699999999999998e-01 -5.2312213175260851e+00 -4.7487297690368573e+00 5.2110596284577315e-01 0 0 0
304 303 9 4.1699999999999998e-01 -4.3228481579216176e+00 -3.3524651613419270e+00 1.7439126036438115e+00 0 2 0
312 306 10 -8.3399999999999996e-01 -4.0953126316662756e+00 -5.0204206450392153e-01 5.3181497768719188e+00 0 2 0
305 303 9 4.1699999999999998e-01 -4.0941258385228787e+00 -2.4067811789465474e+00 2.9037673782330771e+00 0 2 0
374 326 9 4.1699999999999998e-01 -3.9041334017111016e+00 -5.7491513400160663e+00 2.4966600971041371e+00 0 -1 0
124 124 8 0.0000000000000000e+00 -4.2257557599453337e+00 6.7040272590555068e+00 -1.7393388457333778e-01 0 0 0
118 118 8 0.0000000000000000e+00 -6.5690885149496339e+00 5.5456258170905803e+00 -1.7730859501058194e+00 0 0 0
39 39 8 0.0000000000000000e+00 -8.8912195912191194e+00 2.1350992812121845e+00 -4.3550764731908016e+00 0 0 0
40 40 8 0.0000000000000000e+00 -9.3905715273185422e+00 3.2761580190730677e+00 -6.9726556487478568e+00 0 0 0
44 44 8 0.0000000000000000e+00 -1.0080728672291976e+01 2.3848792048714098e+00 -1.8506077603834541e+00 0 0 0
37 37 8 0.0000000000000000e+00 -1.1045243962823589e+01 1.2867462496651143e+00 -5.9205625956060146e+00 0 0 0
55 55 8 0.0000000000000000e+00 -8.8419937972289020e+00 4.7483572069845703e+00 -3.1913767163028348e+00 0 0 0
108 108 8 0.0000000000000000e+00 -4.2622474273894442e+00 3.8446609569191263e+00 -1.2802837982690976e+00 0 0 0
119 119 8 0.0000000000000000e+00 -4.7200924833345610e+00 5.1870572296057844e+00 -3.9052133638964754e+00 0 0 0
98 98 8 0.0000000000000000e+00 -7.3133068693905834e+00 1.3949664809818614e+00 -6.5865238642984787e+00 0 0 0
103 103 8 0.0000000000000000e+00 -4.6283247333994941e+00 1.1085372778205276e+00 -2.2618788841181323e+00 0 0 0
71 71 8 0.0000000000000000e+00 -7.1908860781122730e+00 6.8922306505429862e+00 -4.3229447160728762e+00 0 -1 0
117 117 8 0.0000000000000000e+00 -7.0796914134659241e+00 4.0750582245520288e+00 -5.4624784110184823e+00 0 0 0
102 102 8 0.0000000000000000e+00 -6.6771851770483019e+00 2.9923952600431272e+00 -2.7111121477775559e+00 0 0 0
115 115 8 0.0000000000000000e+00 -4.7199340574745765e+00 4.9645381220419944e+00 -6.9466047531614628e+00 0 0 0
104 104 8 0.0000000000000000e+00 -4.8659759501860620e+00 2.3292615778468697e+00 -4.8995241853505913e+00 0 0 0
69 69 8 0.0000000000000000e+00 -9.3422362804133900e+00 5.8518118349649253e+00 -5.7639322426416717e+00 0 -1 0
105 105 8 0.0000000000000000e+00 -7.6836472584363742e+00 8.1556582182811943e-01 -1.2145930854079772e+00 0 0 0
38 38 8 0.0000000000000000e+00 -1.1053956854159770e+01 3.8596771609785816e+00 -4.6896998898168354e+00 0 0 0
60 60 8 0.0000000000000000e+00 -1.0261446765839990e+01 5.2125511721374300e+00 -7.2983173242999133e-01 0 0 0
7 7 8 0.0000000000000000e+00 -1.1188115859407196e+01 6.5254357152789151e+00 -3.5155415800283953e+00 0 -1 0
121 121 8 0.0000000000000000e+00 -7.9690733978961301e+00 3.4554739696689327e+00 -3.4664182609017757e-01 0 0 0
101 101 8 0.0000000000000000e+00 -6.9116947267084594e+00 2.8774178578759185e-01 -3.9188626151266135e+00 0 0 0
99 99 8 0.0000000000000000e+00 -4.8559829784309878e+00 2.0957218695588846e+00 6.6134093797824978e+00 0 0 -1
126 126 8 0.0000000000000000e+00 -7.4188107194627566e+00 5.0204340850400566e+00 3.3723383150346051e+00 0 0 0
122 122 8 0.0000000000000000e+00 -8.0594050849166496e+00 6.2859861789287983e+00 6.7084639677803648e-01 0 0 0
123 123 8 0.0000000000000000e+00 -5.7159902084100604e+00 4.5472835889016290e+00 1.1334121121986858e+00 0 0 0
100 100 8 0.0000000000000000e+00 -5.2069467176224435e+00 3.2104221856260158e+00 3.8287448369982719e+00 0 0 -1
77 77 8 0.0000000000000000e+00 -9.7252583178034993e+00 6.9190995389699008e+00 2.8773552786036736e+00 0 -1 0
36 36 8 0.0000000000000000e+00 -9.1609723463230956e+00 2.8349892021939329e+00 4.4134092257433988e+00 0 0 -1
97 97 8 0.0000000000000000e+00 -6.9795445499360946e+00 9.6544935264809961e-01 4.9373337889899176e+00 0 0 -1
116 116 8 0.0000000000000000e+00 -5.3662034175906630e+00 6.0575579123577592e+00 4.8214280661298892e+00 0 0 -1
106 106 8 0.0000000000000000e+00 -9.6163279409552764e+00 1.3002805530143313e+00 7.8318175005680613e-01 0 0 0
35 35 8 0.0000000000000000e+00 -9.3769739999068999e+00 4.4431187125867061e-01 6.2430299945949841e+00 0 0 -1
111 111 8 0.0000000000000000e+00 -4.9853703103053144e+00 5.4500015207309782e-01 2.7352954883625453e+00 0 0 0
114 114 8 0.0000000000000000e+00 -9.2133574202905759e+00 5.7298839767549898e+00 5.4789306257122554e+00 0 0 -1
110 110 8 0.0000000000000000e+00 -7.3579747633077659e+00 2.2410547137837833e+00 2.2784137141271485e+00 0 0 0
125 125 8 0.0000000000000000e+00 -9.6542463215728951e+00 4.0487316715672854e+00 1.9383438063624816e+00 0 0 0
107 107 8 0.0000000000000000e+00 -5.4926496170830088e+00 1.7887511840668673e+00 2.3159761787234934e-01 0 0 0
113 113 8 0.0000000000000000e+00 -6.9767857007402796e+00 3.7626399625604008e+00 6.0484794296202846e+00 0 0 -1
48 48 8 0.0000000000000000e+00 -1.1348357765724185e+01 1.8471783244412490e+00 2.8888415172689221e+00 0 0 0
47 47 8 0.0000000000000000e+00 -9.2637204410622047e+00 5.2374046464142260e-02 3.4572280473868560e+00 0 0 0
63 63 8 0.0000000000000000e+00 -1.1422727420520213e+01 4.6363317296093980e+00 4.0220262659239872e+00 0 0 0
120 120 8 0.0000000000000000e+00 -7.0396350726989079e+00 6.5086091511556363e+00 7.1068595459807140e+00 0 0 -1
313 306 9 4.1699999999999998e-01 -4.4100174308843139e+00 3.6151721767260908e-01 5.5854662507129600e+00 0 2 0
128 128 8 0.0000000000000000e+00 -5.9532961357206498e+00 7.1665632036984768e+00 2.0979913774408727e+00 0 0 0
131 129 6 -6.5000000000000002e-01 -3.4716113764673079e-01 -5.2910378211638633e+00 -1.8855615796450653e+00 0 0 0
672 426 9 4.1699999999999998e-01 -1.2417585534487683e+00 -6.9018913927683680e+00 -5.7044426413708793e+00 0 10 4
325 310 9 4.1699999999999998e-01 2.2988454462576220e+00 -1.5612399686206908e+00 -2.9348056282069481e+00 0 4 -3
129 129 7 1.3300000000000001e+00 -1.7600028767056206e+00 -5.5863649594166338e+00 -1.6571991048634938e+00 0 0 0
132 129 6 -6.5000000000000002e-01 -2.3350664843002793e+00 -5.0480636137223449e+00 -4.9730033446977373e-01 0 0 0
233 279 9 4.1699999999999998e-01 1.4537781783782262e+00 -3.6515273979372913e+00 -1.9837359926154935e-01 -1 2 2
598 402 10 -8.3399999999999996e-01 2.8999703645969327e-01 -3.2171474178216242e+00 -6.3432951576064358e+00 0 1 6
690 432 9 4.1699999999999998e-01 -2.0525948592050058e+00 -2.6399397840045227e+00 -3.3411070859325043e+00 0 -1 -1
542 382 9 4.1699999999999998e-01 1.5241447149952461e+00 -3.1308076364489401e-01 -7.0132656485066942e+00 0 3 -1
367 324 9 4.1699999999999998e-01 1.0097344532055941e+00 -5.2717452680207932e+00 -3.3014415504508845e+00 0 1 -1
326 310 9 4.1699999999999998e-01 3.2406002533810057e+00 -3.7883511440044809e-01 -3.0179430803509568e+00 0 4 -3
688 432 10 -8.3399999999999996e-01 -2.3378364573869210e+00 -2.7067871962897914e+00 -4.2523702174787266e+00 0 -1 -1
615 407 9 4.1699999999999998e-01 -2.1322400070361414e-01 -1.1566949307697072e+00 -3.0664640211704830e+00 0 5 4
503 369 9 4.1699999999999998e-01 1.1508243131939695e+00 -3.2638958152601911e+00 -3.3933644563633854e+00 0 -3 1
481 362 9 4.1699999999999998e-01 -1.8514273000247761e+00 -5.2308051413346872e+00 -6.9351851519009644e+00 0 1 0
599 402 9 4.1699999999999998e-01 3.8203436221082188e-02 -4.1134744225063420e+00 -6.1209671909419612e+00 0 1 6
133 129 6 -6.5000000000000002e-01 -2.4530834193795052e+00 -5.1747591358907501e+00 -2.8916673850906029e+00 0 0 0
279 295 10 -8.3399999999999996e-01 -2.2674260407474383e+00 -1.5190243793962852e+00 -6.9853945932092749e+00 0 -1 0
358 321 9 4.1699999999999998e-01 3.5497738554081026e+00 -1.5941250500174191e+00 -6.3731424396948269e+00 0 3 -1
689 432 9 4.1699999999999998e-01 -2.7756004411686237e+00 -3.5563834126040366e+00 -4.3051035568300069e+00 0 -1 -1
232 279 9 4.1699999999999998e-01 1.4754974655509783e+00 -5.1625397470064236e+00 -2.8928645420833971e-01 -1 2 2
186 264 10 -8.3399999999999996e-01 2.7182901375821316e+00 -6.2364778289013749e+00 -5.9005895166766624e+00 -1 2 2
499 368 9 4.1699999999999998e-01 -2.2081620289424153e+00 -4.7393197726670255e-01 -5.2565011378083923e+00 0 0 2
670 426 10 -8.3399999999999996e-01 -1.2191695155560629e+00 -5.9542776695272623e+00 -5.5712142363443018e+00 0 10 4
280 295 9 4.1699999999999998e-01 -2.4471613925048583e+00 -2.4465939524879512e+00 -7.1388277482145339e+00 0 -1 0