LAMMPS data file via write_data, version 16 Mar 2018, timestep = 374

281 atoms
12 atom types
157 bonds
8 bond types
137 angles
13 angle types
132 dihedrals
18 dihedral types

-9.8626932000000007e+00 9.8626932000000007e+00 xlo xhi
-7.3970199000000001e+00 7.3970199000000001e+00 ylo yhi
-7.3970199000000001e+00 7.3970199000000001e+00 zlo zhi

Masses

1 1.008
2 1.008
3 12.011
4 12.011
5 15.9994
6 15.9994
7 32.06
8 196.966
9 1.008
10 15.9994
11 35.45
12 22.9898

Pair Coeffs # lj/charmmfsw/coul/long

1 0.028 2.38761 0.028 2.38761
2 0.024 2.38761 0.024 2.38761
3 0.056 3.58141 0.01 3.38542
4 0.078 3.63487 0.01 3.38542
5 0.1 2.93997 0.1 2.93997
6 0.12 3.02906 0.12 3.02906
7 0.47 3.74177 0.47 3.74177
8 5.29 2.62904 5.29 2.62904
9 0.046 0.400014 0.046 0.400014
10 0.1521 3.15057 0.1521 3.15057
11 0.15 4.04468 0.15 4.04468
12 0.0469 2.42993 0.0469 2.42993

Bond Coeffs # harmonic

1 222.5 1.53
2 222.5 1.528
3 309 1.111
4 340 1.43
5 322 1.111
6 450 0.9572
7 540 1.448
8 250 1.575

Angle Coeffs # charmm

1 58.35 113.6 11.16 2.561
2 58 115 8 2.561
3 26.5 110.1 22.53 2.179
4 75.7 110.1 0 0
5 34.6 110.1 22.53 2.179
6 15 109 27 1.9
7 34.6 110.1 22.53 2.179
8 35.5 109 5.4 1.802
9 60 109.5 0 0
10 35.5 108.4 5.4 1.802
11 55 104.52 0 0
12 130 109.47 35 2.45
13 85 98 0 0

Dihedral Coeffs # charmmfsw

1 0.101 2 0 1
2 0.142 3 180 0
3 0.074 4 0 0
4 0.097 5 0 0
5 0.162 2 0 1
6 0.047 3 180 0
7 0.105 4 0 0
8 0.177 5 0 0
9 0.19 3 0 1
10 0 3 0 1
11 0.16 3 0 1
12 0 3 0 1
13 0 3 0 1
14 0.19 3 0 1
15 0.19 3 0 1
16 0.19 3 0 1
17 0.16 3 0 1
18 0 3 0 1

Atoms # full

1 1 8 0.0000000000000000e+00 -5.8602786575002224e+00 -5.6940548293221820e+00 -5.8408601820508537e+00 0 0 0
2 2 8 0.0000000000000000e+00 -3.9426293912106694e+00 -4.9007215426180082e+00 -3.5495528480769294e+00 0 0 0
3 3 8 0.0000000000000000e+00 -3.5898135478684146e+00 -7.3797807704180167e+00 -4.9813266340888118e+00 0 0 0
4 4 8 0.0000000000000000e+00 -3.2772433874949169e+00 -4.5753549356811698e+00 -6.4290444712337340e+00 0 0 0
5 5 8 0.0000000000000000e+00 -6.1127942280195917e+00 -6.8279603520640082e+00 -3.2511434805507768e+00 0 0 0
6 6 8 0.0000000000000000e+00 -5.7627337892338817e+00 -5.0198037869892591e+00 -1.1106125422573567e+00 0 0 0
7 7 8 0.0000000000000000e+00 -3.5901437588558132e+00 -6.9264883273564006e+00 -1.5061862137034185e+00 0 0 0
8 8 8 0.0000000000000000e+00 -4.2412501522275425e+00 -2.6371218658722024e+00 -1.6387621483299171e+00 0 0 0
17 17 8 0.0000000000000000e+00 -5.5740272305274745e+00 -2.7784368876506798e+00 -6.2013371671840574e+00 0 0 0
18 18 8 0.0000000000000000e+00 -5.8020069316874396e+00 -1.0639809366030848e+00 -3.8108872869113748e+00 0 0 0
19 19 8 0.0000000000000000e+00 -3.3057853366194045e+00 -2.2546362436832732e+00 -4.4383817383726800e+00 0 0 0
20 20 8 0.0000000000000000e+00 -3.7104884462656398e+00 -6.7336471919052809e-01 -6.8223514429285128e+00 0 0 0
21 21 8 0.0000000000000000e+00 -6.5620016614916663e+00 -3.7983773239879706e+00 -3.5903751160893491e+00 0 0 0
22 22 8 0.0000000000000000e+00 -6.8791128902222320e+00 -1.4982954164432936e+00 -1.1517849097710866e+00 0 0 0
23 23 8 0.0000000000000000e+00 -2.7111214191298871e+00 -2.1991274081825893e+00 9.8692719560679931e-01 0 0 0
24 24 8 0.0000000000000000e+00 -3.3743253371119759e+00 -8.1843564116643105e-03 -2.4519169447234410e+00 0 0 0
107 131 10 -8.3399999999999996e-01 -6.7022963744720720e-01 -2.9373424168109921e+00 -7.1025288035489282e+00 0 0 0
67 65 6 -6.5000000000000002e-01 -1.7358254294537099e+00 6.4028420256567307e+00 5.6908495661686436e+00 0 0 0
109 131 9 4.1699999999999998e-01 -8.2850384793649146e-01 -2.0204631231763970e+00 7.3860308473892360e+00 0 0 -1
110 132 10 -8.3399999999999996e-01 -3.0542804380173383e-01 -5.4377154184817842e+00 -5.8596173314079634e+00 0 0 0
111 132 9 4.1699999999999998e-01 -1.1003969100569885e-01 -4.6851149898014963e+00 -5.2653110550612254e+00 0 0 0
112 132 9 4.1699999999999998e-01 -7.5372223128051385e-01 -4.9611166406780365e+00 -6.5770486340525585e+00 0 0 0
113 133 10 -8.3399999999999996e-01 -1.3516721269373961e+00 -3.8727385292665581e+00 -1.8388155376709172e+00 0 0 0
114 133 9 4.1699999999999998e-01 -1.0446248595833512e+00 -4.0125565256631628e+00 -9.2406129759001709e-01 0 0 0
115 133 9 4.1699999999999998e-01 -1.5010792318513297e+00 -4.7838758212782153e+00 -2.1496154982749136e+00 0 0 0
125 137 10 -8.3399999999999996e-01 -7.0445173916495518e-01 -3.0140419371851840e-01 -4.0862049724811227e+00 0 0 0
126 137 9 4.1699999999999998e-01 -7.8562167947931061e-01 2.5823798381138291e-01 -4.8817122209549630e+00 0 0 0
127 137 9 4.1699999999999998e-01 -6.6105682643826813e-01 3.9971588297232435e-01 -3.4105852221392303e+00 0 0 0
33 33 8 0.0000000000000000e+00 -6.4596055314492791e+00 -6.1398760995840032e-03 -6.6019805737648785e+00 0 0 0
34 34 8 0.0000000000000000e+00 -6.2762089057427719e+00 3.5537364057596768e+00 -3.7853185737041208e+00 0 0 0
35 35 8 0.0000000000000000e+00 -4.6404365311429974e+00 1.3440565900997472e+00 -4.7640812553837097e+00 0 0 0
36 36 8 0.0000000000000000e+00 -3.8208902810887766e+00 2.1185216414304446e+00 7.3669088447961855e+00 0 0 -1
37 37 8 0.0000000000000000e+00 -7.6306616914076555e+00 1.1252051593505454e+00 -4.2289223509457567e+00 0 0 0
38 38 8 0.0000000000000000e+00 -8.2714087266348066e+00 2.8410287153891622e+00 -1.7676981768501623e+00 0 0 0
39 39 8 0.0000000000000000e+00 -5.8548031518933472e+00 1.2121080134659428e+00 -1.9807608308905542e+00 0 0 0
40 40 8 0.0000000000000000e+00 -3.6023308619723089e+00 2.9678030766695698e+00 -2.6063934034653267e+00 0 0 0
49 49 8 0.0000000000000000e+00 -6.4808485258663753e+00 2.8912509389708885e+00 -6.5464400503729179e+00 0 0 0
50 50 8 0.0000000000000000e+00 -6.0986553975732498e+00 6.0477850345005608e+00 -5.5807609339921855e+00 0 0 0
51 51 8 0.0000000000000000e+00 -3.9650815762895402e+00 4.1507452159807796e+00 -5.3456708265536435e+00 0 0 0
52 52 8 0.0000000000000000e+00 -4.3055297848016849e+00 -7.2292776898661382e+00 7.0074682363765719e+00 0 1 -1
53 53 8 0.0000000000000000e+00 -7.6216884634434843e+00 5.6554194787506340e+00 -2.3788990832248289e+00 0 0 0
54 54 8 0.0000000000000000e+00 -7.8795264689512781e+00 4.6512222881352123e+00 7.2370676514056165e-01 0 0 0
55 55 8 0.0000000000000000e+00 -5.7596375016773367e+00 3.9344674571773881e+00 -9.9916146460423449e-01 0 0 0
56 56 8 0.0000000000000000e+00 -4.5792148167940843e+00 5.6451936321911571e+00 -2.9362431692352859e+00 0 0 0
122 136 10 -8.3399999999999996e-01 -8.4670001183554722e-01 1.6943382176261692e+00 -5.9947990914201155e+00 0 0 0
66 65 5 -2.8000000000000003e-01 -1.1436996610570114e+00 4.1660584402827148e+00 5.1863861191283540e+00 0 0 0
124 136 9 4.1699999999999998e-01 -1.4108207201036491e+00 2.3932349464608595e+00 -5.6220245207024453e+00 0 0 0
128 138 10 -8.3399999999999996e-01 -7.6743066126393911e-01 1.9785849961241262e+00 -2.4621182180708368e+00 0 0 0
129 138 9 4.1699999999999998e-01 -9.3636632524599617e-01 2.5887442227508246e+00 -3.2141142577536201e+00 0 0 0
130 138 9 4.1699999999999998e-01 -6.6041625220297961e-01 2.6228602500888250e+00 -1.7530095035760080e+00 0 0 0
137 141 10 -8.3399999999999996e-01 -1.1957131721732142e+00 4.0119697239864474e+00 -4.3227624429577922e+00 0 0 0
74 65 1 8.9999999999999997e-02 -1.0990488083432515e+00 2.2632098015475393e+00 3.4882916979075564e+00 0 0 0
139 141 9 4.1699999999999998e-01 -1.2638109457566125e+00 4.7127958500581908e+00 -3.6324194940315877e+00 0 0 0
140 142 10 -8.3399999999999996e-01 -1.2691998290028623e+00 5.9257113255155494e+00 -2.3564818171657884e+00 0 0 0
141 142 9 4.1699999999999998e-01 -1.3009122590609454e+00 6.8272385187297679e+00 -2.7405336801472369e+00 0 0 0
142 142 9 4.1699999999999998e-01 -1.1488622930308046e+00 6.1378420942723579e+00 -1.4167622804033781e+00 0 0 0
9 9 8 0.0000000000000000e+00 -5.9500268499734741e+00 6.7459221624076813e+00 -2.9957160553582113e-01 0 -1 0
10 10 8 0.0000000000000000e+00 -6.0567624241185269e+00 -5.7041331403773361e+00 1.6206406177375119e+00 0 0 0
11 11 8 0.0000000000000000e+00 -3.9152026861485050e+00 7.1402941257582784e+00 1.6553999917451747e+00 0 -1 0
12 12 8 0.0000000000000000e+00 -3.3940647080600534e+00 -4.9715348944205235e+00 5.4306458217515186e-01 0 0 0
13 13 8 0.0000000000000000e+00 -4.9076862859193424e+00 -6.2960018667125333e+00 4.1396970770947723e+00 0 0 0
14 14 8 0.0000000000000000e+00 -5.3599033782748853e+00 -4.5280935628476300e+00 6.3038807980861824e+00 0 0 0
15 15 8 0.0000000000000000e+00 -2.5552332833592719e+00 -5.4390945728294060e+00 5.6297184980711874e+00 0 0 0
16 16 8 0.0000000000000000e+00 -3.4592592766458967e+00 -4.0071784839130533e+00 3.2417748481439359e+00 0 0 0
25 25 8 0.0000000000000000e+00 -5.4818509776021838e+00 -2.9903122812829084e+00 9.7301210646032454e-01 0 0 0
26 26 8 0.0000000000000000e+00 -7.0481223530511006e+00 -7.5416356942848428e-01 1.9629573107003271e+00 0 0 0
27 27 8 0.0000000000000000e+00 -1.6575022788809248e+00 -1.7277869817764360e+00 3.7415709797154122e+00 0 0 0
28 28 8 0.0000000000000000e+00 -4.7141128519980713e+00 -2.8844146635973827e-01 2.8920162613259531e-01 0 0 0
29 29 8 0.0000000000000000e+00 -6.2797603231010992e+00 -3.5888885728341795e+00 3.7035763341016930e+00 0 0 0
30 30 8 0.0000000000000000e+00 -5.7835968657084393e+00 -1.4936170450989008e+00 5.7880531550831673e+00 0 0 0
31 31 8 0.0000000000000000e+00 -3.2223016352904308e+00 -2.6605826298516231e+00 5.9386301492153279e+00 0 0 0
32 32 8 0.0000000000000000e+00 -4.5007587126620301e+00 -1.3698237493073884e+00 3.1477633691238456e+00 0 0 0
116 134 10 -8.3399999999999996e-01 -1.0576296549295319e+00 7.1137216639850971e+00 4.3862625045246140e-01 0 -1 0
117 134 9 4.1699999999999998e-01 -1.0392684799422476e+00 7.0468448010358156e+00 1.4226375109754603e+00 0 -1 0
118 134 9 4.1699999999999998e-01 -1.9451343107819989e+00 -7.3231688017509429e+00 3.2523931690493213e-01 0 0 0
119 135 10 -8.3399999999999996e-01 -3.8009820169879283e-01 -4.7074377123225126e+00 3.5934576877669784e+00 0 0 0
69 65 6 -6.5000000000000002e-01 -1.9860805635015084e+00 4.6724900693830911e+00 -7.3936598187812184e+00 0 0 1
121 135 9 4.1699999999999998e-01 -9.1929241848636278e-01 -4.1901103291638462e+00 4.2048314307566166e+00 0 0 0
131 139 10 -8.3399999999999996e-01 -9.5750155659306502e-01 -3.3621214551394984e-01 -7.4501510461767173e-01 0 0 0
132 139 9 4.1699999999999998e-01 -8.9981932047568458e-01 4.8012760306140928e-01 -1.2720820040526781e+00 0 0 0
133 139 9 4.1699999999999998e-01 -1.2742787357785976e+00 -9.7256553577433902e-01 -1.3993724884468657e+00 0 0 0
134 140 10 -8.3399999999999996e-01 -8.8621574220207799e-01 -2.8142868092870188e-01 6.9216915081792241e+00 0 0 0
135 140 9 4.1699999999999998e-01 -9.2609388001620052e-01 4.0483042517897333e-01 -7.1664280953456609e+00 0 0 1
136 140 9 4.1699999999999998e-01 -1.4667593604799118e+00 1.1374420604443955e-01 6.2606419970022458e+00 0 0 0
41 41 8 0.0000000000000000e+00 -6.8273342217270194e+00 1.8449788136045027e+00 6.0744829892291152e-01 0 0 0
42 42 8 0.0000000000000000e+00 -7.9041429111462556e+00 1.7474514555420453e+00 3.3075545220221074e+00 0 0 0
43 43 8 0.0000000000000000e+00 -2.4853001674981705e+00 5.3756141509646493e-01 2.1527999940738010e+00 0 0 0
44 44 8 0.0000000000000000e+00 -3.7269726628569271e+00 2.3313424458044150e+00 2.3530574455901940e-01 0 0 0
45 45 8 0.0000000000000000e+00 -5.1129546090444506e+00 1.3883830031241164e+00 2.7860737002727207e+00 0 0 0
46 46 8 0.0000000000000000e+00 -6.0198149756096759e+00 1.4317114371184203e+00 5.6216841457028384e+00 0 0 0
47 47 8 0.0000000000000000e+00 -3.3766570898132526e+00 2.4109149171003097e-01 5.1611548031339050e+00 0 0 0
48 48 8 0.0000000000000000e+00 -3.7866153335000066e+00 3.0451749507545958e+00 4.5960785126987291e+00 0 0 0
57 57 8 0.0000000000000000e+00 -5.2190387340153963e+00 4.1858468145631615e+00 1.8192818303144653e+00 0 0 0
58 58 8 0.0000000000000000e+00 -6.6111001124702016e+00 6.4955675992990054e+00 2.6945042628880751e+00 0 0 0
59 59 8 0.0000000000000000e+00 -2.4256242043652163e+00 4.2331946499205868e+00 2.2954730732400450e+00 0 0 0
60 60 8 0.0000000000000000e+00 -3.3336727437597049e+00 5.1589136608218196e+00 -3.3632628983140544e-01 0 0 0
61 61 8 0.0000000000000000e+00 -6.4997859088818295e+00 4.0416602226628706e+00 4.3893718597257072e+00 0 0 0
62 62 8 0.0000000000000000e+00 -6.6708533826428020e+00 6.7213331912641898e+00 5.6296404978643046e+00 0 0 0
63 63 8 0.0000000000000000e+00 -4.8862034789588469e+00 4.7378841803359029e+00 6.7508962477821104e+00 0 0 0
64 64 8 0.0000000000000000e+00 -4.1720844701726021e+00 5.7910708002562661e+00 4.1675806793588572e+00 0 0 0
65 65 7 1.3300000000000001e+00 -1.1836487663835613e+00 5.2229886570087416e+00 6.3254777444603327e+00 0 0 0
71 65 1 8.9999999999999997e-02 -1.7427010601517379e+00 2.3389635892757510e+00 5.9796935502309490e+00 0 0 0
150 145 9 4.1699999999999998e-01 -4.3957206798585013e-01 -2.0548336410482753e+00 -4.2135416870660523e+00 0 0 0
108 131 9 4.1699999999999998e-01 -7.3381670739919092e-01 -2.8319546174936878e+00 -6.1315183547848466e+00 0 0 0
193 159 9 4.1699999999999998e-01 -1.0287854851543308e+00 -6.1719211987319538e+00 -4.2806259711616566e+00 0 1 0
163 149 9 4.1699999999999998e-01 -1.5525916632116372e+00 7.0225516300165971e+00 4.0292738090400562e+00 0 -1 0
162 149 9 4.1699999999999998e-01 -1.0278364094106007e+00 -6.4735617156065146e+00 3.4540991895638760e+00 0 0 0
75 65 1 8.9999999999999997e-02 -3.7259039941263894e-01 9.7421275837807109e-01 4.5089522831882727e+00 0 0 0
149 145 10 -8.3399999999999996e-01 -4.1666140046720074e-01 -3.0294922912733515e+00 -4.3438657166088763e+00 0 0 0
151 145 9 4.1699999999999998e-01 -7.2713809952330211e-01 -3.3171276895300768e+00 -3.4577191273205505e+00 0 0 0
161 149 10 -8.3399999999999996e-01 -1.3281673631493160e+00 -7.3534731631101167e+00 3.1698059506705882e+00 0 0 0
231 173 10 -8.3399999999999996e-01 -9.7322576436228569e+00 -1.7498959966609289e+00 2.7242581873466820e-01 1 0 0
138 141 9 4.1699999999999998e-01 -1.5189420577603401e+00 4.4867262199204871e+00 -5.1061754624328950e+00 0 0 0
160 148 9 4.1699999999999998e-01 -4.6173409991401304e-01 -4.5447701715529831e+00 1.7365311739322837e+00 0 0 0
70 65 3 -2.8000000000000003e-01 -8.3887648518213997e-01 2.8289170569029425e+00 5.5627472011809038e+00 0 0 0
226 171 9 4.1699999999999998e-01 -9.2427257798235409e+00 -1.0556029890509768e+00 -4.7850809818050406e+00 1 0 0
181 155 9 4.1699999999999998e-01 -2.3431710288735380e-01 -1.1864351556929424e+00 5.8733880070579170e-01 0 0 0
191 159 10 -8.3399999999999996e-01 -1.0354164582833449e+00 -6.3168384437153779e+00 -3.3151411544228400e+00 0 1 0
229 172 9 4.1699999999999998e-01 -8.7215129745047566e+00 6.2475320219513442e-01 -1.7791165898983399e+00 1 0 0
228 172 10 -8.3399999999999996e-01 -9.5115308245690660e+00 8.3708417237659913e-02 -1.8921774090343975e+00 1 0 0
158 148 10 -8.3399999999999996e-01 -2.7234696234575345e-01 -4.2567087176435949e+00 8.2144435830200713e-01 0 0 0
232 173 9 4.1699999999999998e-01 -8.8227848595079035e+00 -2.0384812984662819e+00 1.5966615907754939e-01 1 0 0
225 171 10 -8.3399999999999996e-01 -9.2496634238775588e+00 -1.7059435181450553e+00 -4.0573912208032299e+00 1 0 0
227 171 9 4.1699999999999998e-01 -9.3122486884145754e+00 -1.1336409528562070e+00 -3.2699491673843637e+00 1 0 0
224 170 9 4.1699999999999998e-01 -8.9069743030310864e+00 2.0345017847287250e-01 -6.8411894162040348e+00 1 0 0
222 170 10 -8.3399999999999996e-01 -9.6341478420324869e+00 -1.5761207363799001e-02 -6.2494799056769121e+00 1 0 0
72 65 1 8.9999999999999997e-02 -2.4481405457696660e-02 2.7649930258825055e+00 6.3183555831013063e+00 0 0 0
73 65 3 -1.7999999999999999e-01 -3.7962726811948694e-01 2.0687902597439329e+00 4.3127857417056097e+00 0 0 0
123 136 9 4.1699999999999998e-01 -4.8746369564356976e-02 2.2346342641076711e+00 -6.1772809222816489e+00 0 0 0
159 148 9 4.1699999999999998e-01 -5.9491355663582525e-02 -3.3099270566420680e+00 9.9314193035700937e-01 0 0 0
233 173 9 4.1699999999999998e-01 -9.8338724863419937e+00 -1.1266393810320674e+00 -4.7171159075559632e-01 1 0 0
192 159 9 4.1699999999999998e-01 -6.4330423636751496e-02 -6.3112635016959615e+00 -3.1485834193987285e+00 0 1 0
84 65 1 8.9999999999999997e-02 -6.4664517022019044e-02 1.5760384558884266e+00 1.2513945051255304e+00 0 0 0
223 170 9 4.1699999999999998e-01 -9.8362020479145311e+00 8.6612465598441968e-01 -5.8496098161496981e+00 1 0 0
93 65 1 8.9999999999999997e-02 2.3915959145456669e+00 7.2174847186535229e-01 -2.2512830726601041e+00 0 0 0
94 65 3 -1.7999999999999999e-01 3.6392282431609235e+00 -9.1599028358773960e-01 -1.5606891034949222e+00 0 0 0
95 65 1 8.9999999999999997e-02 2.8023101791133813e+00 -1.6292958367629133e+00 -1.3798755580348419e+00 0 0 0
96 65 1 8.9999999999999997e-02 4.4083636930229844e+00 -1.0937733377184755e+00 -7.7618672233975761e-01 0 0 0
97 65 3 -1.7999999999999999e-01 4.2467126923192975e+00 -1.1963389394390713e+00 -2.9422413068689388e+00 0 0 0
98 65 1 8.9999999999999997e-02 4.9980334829034421e+00 -4.0981158449085014e-01 -3.1775637110483790e+00 0 0 0
99 65 1 8.9999999999999997e-02 3.4391497683439014e+00 -1.1313169462664343e+00 -3.7066474283630866e+00 0 0 0
100 65 3 -1.7999999999999999e-01 4.9224908154450944e+00 -2.5739337457650722e+00 -3.0395645256654817e+00 0 0 0
101 65 1 8.9999999999999997e-02 5.7895100263554813e+00 -2.5923188406310360e+00 -2.3397621693537443e+00 0 0 0
102 65 1 8.9999999999999997e-02 5.3323213430366065e+00 -2.6924504505487659e+00 -4.0679189547969452e+00 0 0 0
103 65 4 -2.7000000000000002e-01 4.0010636379989162e+00 -3.7542391798675272e+00 -2.7133964358636073e+00 0 0 0
104 65 2 8.9999999999999997e-02 3.0733101654227020e+00 -3.7140302526125017e+00 -3.3246765496629602e+00 0 0 0
105 65 2 8.9999999999999997e-02 4.5166007648261779e+00 -4.7205264740044903e+00 -2.9000930287853208e+00 0 0 0
106 65 2 8.9999999999999997e-02 3.7024417147996913e+00 -3.7304504152162679e+00 -1.6425872168114339e+00 0 0 0
143 143 10 -8.3399999999999996e-01 1.5483464839212882e+00 -7.2134696835032468e+00 -7.2013627299498486e+00 0 0 0
144 143 9 4.1699999999999998e-01 9.0766686175481848e-01 -6.6897676421927237e+00 -6.6791146815616838e+00 0 0 0
145 143 9 4.1699999999999998e-01 9.7339142055747330e-01 6.8770311743146211e+00 7.2182325048408558e+00 0 -1 -1
146 144 10 -8.3399999999999996e-01 4.2565278877291188e+00 -4.4309847800584325e+00 -6.0019463441810172e+00 0 0 0
147 144 9 4.1699999999999998e-01 4.1713137745087838e+00 -4.1591614621789708e+00 -5.0815590254343848e+00 0 0 0
148 144 9 4.1699999999999998e-01 3.4336387181429870e+00 -4.0625793566916455e+00 -6.3887400080260006e+00 0 0 0
275 187 9 4.1699999999999998e-01 6.6745909924561238e+00 -6.9863786623509094e+00 4.4648840736233071e+00 0 1 0
252 180 10 -8.3399999999999996e-01 9.4363266155290084e+00 2.3190649933197300e+00 -5.0991788881715658e+00 0 0 0
274 187 9 4.1699999999999998e-01 7.1408185809371174e+00 6.6685209338557838e+00 3.5962520877982369e+00 0 0 0
152 146 10 -8.3399999999999996e-01 1.3284949265521173e+00 -6.3286116033555624e+00 -9.6137599727131415e-02 0 0 0
153 146 9 4.1699999999999998e-01 8.9844714827652927e-01 -5.5047501216976986e+00 2.2061121565269248e-01 0 0 0
154 146 9 4.1699999999999998e-01 5.9146003658639756e-01 -6.9532413375438695e+00 7.2900210152716194e-02 0 0 0
173 153 10 -8.3399999999999996e-01 1.8364032730410309e+00 -8.0095473374097903e-01 6.6350902318230540e+00 0 0 -1
174 153 9 4.1699999999999998e-01 2.2348222395812813e+00 6.3072225922263692e-02 6.8554149932247945e+00 0 0 -1
175 153 9 4.1699999999999998e-01 8.8336416146375685e-01 -5.8541705951319789e-01 6.6472304209469701e+00 0 0 -1
197 161 12 1.0000000000000000e+00 5.4577999085929889e+00 -5.0457729613523465e+00 6.8937271311803077e+00 0 0 -1
198 162 10 -8.3399999999999996e-01 8.6556838964008715e+00 -3.2898472770318254e+00 -5.3440548779947674e+00 0 0 0
199 162 9 4.1699999999999998e-01 8.1413674994567558e+00 -2.5301125941817304e+00 -5.6870414362550870e+00 0 0 0
200 162 9 4.1699999999999998e-01 9.4050588516712939e+00 -2.8113060599471478e+00 -4.9229230172317004e+00 0 0 0
201 163 10 -8.3399999999999996e-01 8.9419347789769130e+00 -5.1581249329068264e+00 -3.3428970292351079e+00 0 0 0
202 163 9 4.1699999999999998e-01 8.7769139847410482e+00 -4.5344952356475634e+00 -4.0795329875410085e+00 0 0 0
203 163 9 4.1699999999999998e-01 9.4293764607917439e+00 -4.6032031995903031e+00 -2.7257300639226152e+00 0 0 0
244 177 9 4.1699999999999998e-01 7.2265793130070293e+00 2.2427350827144834e+00 -6.6821115709856143e+00 0 0 1
268 185 9 4.1699999999999998e-01 7.1098821864257209e+00 -6.8961426370585652e+00 -3.2018541289190089e-01 0 1 0
243 177 10 -8.3399999999999996e-01 6.4894596285578388e+00 1.6063964798877903e+00 -6.6975057601994283e+00 0 0 1
83 65 1 8.9999999999999997e-02 4.9709080880827283e-01 3.2672894216551605e+00 1.4317563950965753e+00 0 0 0
85 65 3 -1.7999999999999999e-01 1.7373364107381246e+00 2.0858957652909731e+00 1.1103802491161971e-01 0 0 0
86 65 1 8.9999999999999997e-02 2.5735754468713652e+00 2.8148014161861150e+00 1.9162625525357302e-01 0 0 0
87 65 1 8.9999999999999997e-02 1.1475627708905989e+00 2.3545028037877658e+00 -7.8944115417480498e-01 0 0 0
88 65 3 -1.7999999999999999e-01 2.3303013178433583e+00 6.8335118394143635e-01 -8.5611686629307807e-02 0 0 0
89 65 1 8.9999999999999997e-02 1.5029644558772677e+00 -5.7038577673387235e-02 -8.3710525528016319e-02 0 0 0
90 65 1 8.9999999999999997e-02 3.0090463967871854e+00 4.3313906974842997e-01 7.6105630253382672e-01 0 0 0
91 65 3 -1.7999999999999999e-01 3.0909131379829891e+00 5.1132330262729309e-01 -1.4097006633378699e+00 0 0 0
92 65 1 8.9999999999999997e-02 3.9265017466842136e+00 1.2424086417009990e+00 -1.4622570569177864e+00 0 0 0
176 154 10 -8.3399999999999996e-01 3.0116322419633437e+00 1.6430873414112503e+00 7.2438187321693288e+00 0 0 -1
177 154 9 4.1699999999999998e-01 3.6564388365050102e+00 2.1481971804012758e+00 -7.0192848320846037e+00 0 0 0
178 154 9 4.1699999999999998e-01 2.2307114844447602e+00 2.2063829822562400e+00 -7.3712042944450538e+00 0 0 0
185 157 10 -8.3399999999999996e-01 1.2556247829574658e+00 3.5009359158718882e+00 -6.4869897113445862e+00 0 0 0
186 157 9 4.1699999999999998e-01 1.5096735667297922e+00 4.1014920346244512e+00 -5.7772463791851330e+00 0 0 0
187 157 9 4.1699999999999998e-01 9.0607182999436120e-01 4.1460358310769561e+00 -7.1444850702835927e+00 0 0 0
188 158 10 -8.3399999999999996e-01 3.6868134404977333e+00 5.9011969527387746e+00 -6.6040503730503595e+00 0 0 0
189 158 9 4.1699999999999998e-01 4.3693032475103690e+00 6.4762757111397784e+00 -7.0049066567528309e+00 0 0 0
190 158 9 4.1699999999999998e-01 2.8972479406673806e+00 6.4650986716637018e+00 -6.7415253184290975e+00 0 0 0
267 185 10 -8.3399999999999996e-01 6.7057841209138660e+00 7.0572408863315186e+00 -6.3628744850958985e-01 0 0 0
120 135 9 4.1699999999999998e-01 5.0191877671583474e-01 -4.6315282632880468e+00 3.9786037805150700e+00 0 0 0
280 189 9 4.1699999999999998e-01 6.4948750799917310e+00 7.1255739644557394e+00 -7.2569969403226988e+00 0 0 1
194 160 10 -8.3399999999999996e-01 1.6253100020729920e+00 -6.3785161718068517e+00 -2.8096475701496813e+00 0 1 0
195 160 9 4.1699999999999998e-01 2.5409365582287378e+00 -6.6243970864727642e+00 -2.9605985728953281e+00 0 1 0
196 160 9 4.1699999999999998e-01 1.5870541556341768e+00 -6.3016702679265686e+00 -1.8341002364260917e+00 0 1 0
78 65 1 8.9999999999999997e-02 1.0110461703670273e+00 3.6250673350397600e+00 3.7556058142883337e+00 0 0 0
77 65 1 8.9999999999999997e-02 1.7130304983447220e+00 2.3144569568450328e+00 4.7578294046852738e+00 0 0 0
239 175 9 4.1699999999999998e-01 7.8626384848119812e+00 2.5962922475886914e+00 5.1126797417846932e+00 0 0 0
238 175 9 4.1699999999999998e-01 9.2358055268282975e+00 2.0982717256932291e+00 4.7584548642385425e+00 0 0 0
266 184 9 4.1699999999999998e-01 7.2917647903545788e+00 6.4864739267323506e+00 1.0940462741747246e+00 0 0 0
230 172 9 4.1699999999999998e-01 9.5473986631299042e+00 7.7412042156741412e-01 -2.0964921356173849e+00 0 0 0
246 178 10 -8.3399999999999996e-01 4.5268228543514244e+00 3.3894694539792631e+00 -5.9702581285350469e+00 0 0 0
247 178 9 4.1699999999999998e-01 4.4417037142725775e+00 3.5500962736085016e+00 -5.0252691947349710e+00 0 0 0
248 178 9 4.1699999999999998e-01 4.2354378719278918e+00 4.2682594323050687e+00 -6.3154154987431470e+00 0 0 0
249 179 10 -8.3399999999999996e-01 7.9673737658796053e+00 6.8776339455403308e+00 -6.3134436929518065e+00 0 0 0
250 179 9 4.1699999999999998e-01 8.2503229083501211e+00 -7.0241153427983631e+00 -6.5811861776164537e+00 0 1 0
251 179 9 4.1699999999999998e-01 8.0090338850006670e+00 6.9432884056329609e+00 -5.3345606245724033e+00 0 0 0
265 184 9 4.1699999999999998e-01 8.4434350809163590e+00 5.7337116921949125e+00 1.7024485422757971e+00 0 0 0
271 186 9 4.1699999999999998e-01 7.1311523128343888e+00 5.1651688856661453e+00 5.1701838218874645e+00 0 0 0
254 180 9 4.1699999999999998e-01 9.1305061623517645e+00 2.4228404356403743e+00 -4.1786102562496508e+00 0 0 0
255 181 10 -8.3399999999999996e-01 7.9814100581193763e+00 7.1172915639835628e+00 -3.5264307854273476e+00 0 0 0
256 181 9 4.1699999999999998e-01 8.4366563996047379e+00 -6.8034973526521325e+00 -3.4616713447760632e+00 0 1 0
257 181 9 4.1699999999999998e-01 7.2886731377998952e+00 7.2395727939674535e+00 -2.8622744390327926e+00 0 0 0
258 182 10 -8.3399999999999996e-01 8.4983137487235325e+00 2.2653036413947536e+00 -2.4312562337999899e+00 0 0 0
259 182 9 4.1699999999999998e-01 8.5330956080675353e+00 3.1995653791299308e+00 -2.1201346223966206e+00 0 0 0
260 182 9 4.1699999999999998e-01 7.5756803220388642e+00 2.0539302882011627e+00 -2.2524841475220669e+00 0 0 0
261 183 10 -8.3399999999999996e-01 8.2222624986961250e+00 4.9184313171346243e+00 -1.7556302654938332e+00 0 0 0
262 183 9 4.1699999999999998e-01 8.4528636921842519e+00 5.4902046277980485e+00 -2.5103232829784545e+00 0 0 0
263 183 9 4.1699999999999998e-01 7.6686245817538738e+00 5.5428191347240121e+00 -1.2492408681040412e+00 0 0 0
155 147 10 -8.3399999999999996e-01 3.9583080114574751e+00 -7.3257519653893262e+00 -2.9159644652934380e-01 0 0 0
156 147 9 4.1699999999999998e-01 3.1581037482557122e+00 -6.7667311643658445e+00 -2.3258880885991912e-01 0 0 0
157 147 9 4.1699999999999998e-01 3.6681296167652979e+00 6.7049874443374078e+00 2.1599570587472020e-01 0 -1 0
264 184 10 -8.3399999999999996e-01 7.7594517689839488e+00 6.3680428579009432e+00 1.9422994691472426e+00 0 0 0
253 180 9 4.1699999999999998e-01 8.9959123832584567e+00 3.0641741558504751e+00 -5.5574688520087498e+00 0 0 0
270 186 10 -8.3399999999999996e-01 7.0834648668922915e+00 4.2595059174801531e+00 5.5479097745564383e+00 0 0 0
273 187 10 -8.3399999999999996e-01 6.8151553207555402e+00 6.8371903442839059e+00 4.5071782768350532e+00 0 0 0
272 186 9 4.1699999999999998e-01 6.1291585991035671e+00 4.1156992925551705e+00 5.5442417965277393e+00 0 0 0
279 189 10 -8.3399999999999996e-01 5.7122902147010874e+00 7.3864495920447073e+00 7.0071136752034135e+00 0 0 0
164 150 10 -8.3399999999999996e-01 6.1935996040026122e+00 -2.7295365308914654e+00 3.0054560778682906e+00 0 0 0
165 150 9 4.1699999999999998e-01 6.5510864513133527e+00 -2.0247650550870646e+00 3.5905450118375013e+00 0 0 0
166 150 9 4.1699999999999998e-01 5.3517533328890865e+00 -2.3527282589726650e+00 2.7309049537816827e+00 0 0 0
167 151 10 -8.3399999999999996e-01 3.2741662169034265e+00 -5.4834118732350019e+00 6.1931109155294388e+00 0 0 0
168 151 9 4.1699999999999998e-01 2.7648005607725548e+00 -4.7199030113521516e+00 6.5344120802861188e+00 0 0 0
169 151 9 4.1699999999999998e-01 2.7361856104683255e+00 -6.2187424282485440e+00 6.5521151976995897e+00 0 0 0
170 152 10 -8.3399999999999996e-01 2.0595580226140835e+00 -3.3876328598564687e+00 -7.3536165599807024e+00 0 0 1
171 152 9 4.1699999999999998e-01 2.1513072650994736e+00 -2.4581944472844803e+00 7.1273601645454701e+00 0 0 0
172 152 9 4.1699999999999998e-01 1.0926166058059161e+00 -3.3971983113149560e+00 -7.2046947989197516e+00 0 0 1
179 155 10 -8.3399999999999996e-01 2.1604059090565583e-01 -1.6286489978984933e+00 1.3427343401660403e+00 0 0 0
180 155 9 4.1699999999999998e-01 4.5725991611155109e-01 -8.6957223636892911e-01 1.8785858791902907e+00 0 0 0
278 188 9 4.1699999999999998e-01 7.7851320871072067e+00 4.1357201375027435e+00 7.2009785083641118e+00 0 0 0
182 156 10 -8.3399999999999996e-01 5.1887541251426104e+00 -1.5563468959244901e-02 6.2450326244974255e+00 0 0 0
183 156 9 4.1699999999999998e-01 5.6730114162055640e+00 5.6078951158450918e-01 6.8709384483697189e+00 0 0 0
184 156 9 4.1699999999999998e-01 4.2914009170586098e+00 3.5339072233188229e-01 6.3344594964617587e+00 0 0 0
204 164 10 -8.3399999999999996e-01 8.0546909582934969e+00 -5.7942062800961427e+00 7.9000071889899248e-01 0 0 0
205 164 9 4.1699999999999998e-01 8.2199542215777281e+00 -6.4076599616979575e+00 1.5184035520344061e+00 0 0 0
206 164 9 4.1699999999999998e-01 8.3765882689112843e+00 -4.9525944012159577e+00 1.1688749339929561e+00 0 0 0
207 165 10 -8.3399999999999996e-01 8.7521972248591311e+00 -3.4369309909007209e+00 2.1491102298040472e+00 0 0 0
208 165 9 4.1699999999999998e-01 9.1273373377177158e+00 -2.7698624031387085e+00 1.5335990385293490e+00 0 0 0
209 165 9 4.1699999999999998e-01 7.8328840208626707e+00 -3.1222455114242185e+00 2.2644115062309131e+00 0 0 0
210 166 10 -8.3399999999999996e-01 6.3903343851350538e+00 -5.1766359476466617e+00 4.6555552195654597e+00 0 0 0
211 166 9 4.1699999999999998e-01 7.2035313662394795e+00 -4.6560241525054105e+00 4.8305013214384616e+00 0 0 0
212 166 9 4.1699999999999998e-01 5.9824637657132689e+00 -4.6015227303110722e+00 3.9850299439156802e+00 0 0 0
213 167 10 -8.3399999999999996e-01 8.5212228107756349e+00 -3.4934515306755092e+00 5.0626483867182834e+00 0 0 0
214 167 9 4.1699999999999998e-01 8.9164662083252928e+00 -3.5236609881426300e+00 4.1714371568908639e+00 0 0 0
215 167 9 4.1699999999999998e-01 8.2122105936685728e+00 -2.5680890531953997e+00 5.0956976220492605e+00 0 0 0
216 168 10 -8.3399999999999996e-01 7.8261043583790135e+00 -5.0340852797952165e+00 -7.3233146098310256e+00 0 0 1
217 168 9 4.1699999999999998e-01 8.1395098736753546e+00 -4.5013036259418007e+00 -6.5611575891441074e+00 0 0 1
218 168 9 4.1699999999999998e-01 8.2502509926358272e+00 -4.5523610506356951e+00 6.7341043390597504e+00 0 0 0