LAMMPS data file via write_data, version 16 Mar 2018, timestep = 563

714 atoms
12 atom types
403 bonds
8 bond types
260 angles
13 angle types
132 dihedrals
18 dihedral types

-1.9725386000000000e+01 1.9725386000000000e+01 xlo xhi
-7.3970199000000001e+00 7.3970199000000001e+00 ylo yhi
-7.3970199000000001e+00 7.3970199000000001e+00 zlo zhi

Masses

1 1.008
2 1.008
3 12.011
4 12.011
5 15.9994
6 15.9994
7 32.06
8 196.966
9 1.008
10 15.9994
11 35.45
12 22.9898

Pair Coeffs # lj/charmmfsw/coul/long

1 0.028 2.38761 0.028 2.38761
2 0.024 2.38761 0.024 2.38761
3 0.056 3.58141 0.01 3.38542
4 0.078 3.63487 0.01 3.38542
5 0.1 2.93997 0.1 2.93997
6 0.12 3.02906 0.12 3.02906
7 0.47 3.74177 0.47 3.74177
8 5.29 2.62904 5.29 2.62904
9 0.046 0.400014 0.046 0.400014
10 0.1521 3.15057 0.1521 3.15057
11 0.15 4.04468 0.15 4.04468
12 0.0469 2.42993 0.0469 2.42993

Bond Coeffs # harmonic

1 222.5 1.53
2 222.5 1.528
3 309 1.111
4 340 1.43
5 322 1.111
6 450 0.9572
7 540 1.448
8 250 1.575

Angle Coeffs # charmm

1 58.35 113.6 11.16 2.561
2 58 115 8 2.561
3 26.5 110.1 22.53 2.179
4 75.7 110.1 0 0
5 34.6 110.1 22.53 2.179
6 15 109 27 1.9
7 34.6 110.1 22.53 2.179
8 35.5 109 5.4 1.802
9 60 109.5 0 0
10 35.5 108.4 5.4 1.802
11 55 104.52 0 0
12 130 109.47 35 2.45
13 85 98 0 0

Dihedral Coeffs # charmmfsw

1 0.101 2 0 1
2 0.142 3 180 0
3 0.074 4 0 0
4 0.097 5 0 0
5 0.162 2 0 1
6 0.047 3 180 0
7 0.105 4 0 0
8 0.177 5 0 0
9 0.19 3 0 1
10 0 3 0 1
11 0.16 3 0 1
12 0 3 0 1
13 0 3 0 1
14 0.19 3 0 1
15 0.19 3 0 1
16 0.19 3 0 1
17 0.16 3 0 1
18 0 3 0 1

Atoms # full

1 1 8 0.0000000000000000e+00 -1.3364663515671278e+01 -5.8451580490492008e+00 -6.4532456333872963e+00 0 0 0
2 2 8 0.0000000000000000e+00 -1.2715960439228427e+01 -4.1821744776297844e+00 -4.3033730995457171e+00 0 0 0
5 5 8 0.0000000000000000e+00 -1.3670175129063997e+01 -6.7873981207151441e+00 -3.5245038385078429e+00 0 0 0
6 6 8 0.0000000000000000e+00 -1.3174819540945743e+01 -4.5517317806103064e+00 -1.5249022141150990e+00 0 0 0
17 17 8 0.0000000000000000e+00 -1.3493261006972133e+01 -3.0648834279201522e+00 -6.9544406701531445e+00 0 0 0
18 18 8 0.0000000000000000e+00 -1.2366523199738491e+01 -1.4057942907789103e+00 -5.0408640297465537e+00 0 0 0
21 21 8 0.0000000000000000e+00 -1.4598796190172097e+01 -2.2586776210407309e+00 -3.3870135522122498e+00 0 0 0
253 286 9 4.1699999999999998e-01 -1.6936286419141833e+01 -6.3038927955731712e+00 -4.6861231430353865e+00 0 1 0
252 286 10 -8.3399999999999996e-01 -1.7694284926413541e+01 -6.9340867025886919e+00 -4.6764237638455146e+00 0 1 0
9 9 8 0.0000000000000000e+00 -1.4328664051612590e+01 -6.9319640029007417e+00 -5.0300918601635336e-01 0 0 0
182 262 9 4.1699999999999998e-01 -1.9412733086942655e+01 -1.9333846199152824e+00 -2.9580279804953236e+00 0 0 0
649 419 10 -8.3399999999999996e-01 -1.9413766925346902e+01 -4.6091881513419480e-01 -1.9523054274235596e+00 1 0 0
613 407 10 -8.3399999999999996e-01 -1.9417701913481523e+01 -5.2730650353407018e+00 -3.3328048783035036e+00 1 0 0
614 407 9 4.1699999999999998e-01 -1.9263459179824377e+01 -4.3100261868057430e+00 -3.4681637185922183e+00 1 0 0
177 261 10 -8.3399999999999996e-01 -1.5804976859276515e+01 -4.9617942358018894e+00 -4.8392160063784075e+00 0 0 0
178 261 9 4.1699999999999998e-01 -1.5822948096268897e+01 -5.1243276185048749e+00 -5.8065546802318906e+00 0 0 0
179 261 9 4.1699999999999998e-01 -1.5024031699724929e+01 -4.4117661715525758e+00 -4.7415185130032524e+00 0 0 0
180 262 10 -8.3399999999999996e-01 -1.9188623665973690e+01 -2.5703389015531255e+00 -3.6715755915332799e+00 0 0 0
181 262 9 4.1699999999999998e-01 -1.8355694892531254e+01 -2.1602538614462268e+00 -3.9813234513748483e+00 0 0 0
220 275 9 4.1699999999999998e-01 -1.6656627035683091e+01 -5.0085912752673212e-01 -1.1812307136541913e+00 0 0 0
183 263 10 -8.3399999999999996e-01 -1.7528000798087181e+01 -6.2390032313377688e+00 -1.5725737365139418e+00 0 0 0
184 263 9 4.1699999999999998e-01 -1.7024684108083946e+01 -5.4462908099566185e+00 -1.3003114559690989e+00 0 0 0
185 263 9 4.1699999999999998e-01 -1.8213289919881888e+01 -5.8338282415935154e+00 -2.1372607942473398e+00 0 0 0
186 264 10 -8.3399999999999996e-01 -1.6298458059498326e+01 -3.9641347439420769e+00 -7.5288490461476565e-01 0 0 0
187 264 9 4.1699999999999998e-01 -1.5382760765782924e+01 -3.7833887933778816e+00 -9.9303633031585214e-01 0 0 0
188 264 9 4.1699999999999998e-01 -1.6683656169913213e+01 -3.0616754858914788e+00 -7.9315089844440301e-01 0 0 0
207 271 10 -8.3399999999999996e-01 -1.7878340739831010e+01 -1.0038548855322338e+00 -6.8820926170013541e+00 0 0 0
208 271 9 4.1699999999999998e-01 -1.7635013831126411e+01 -9.6633983082556618e-01 -5.9321799078988890e+00 0 0 0
219 275 10 -8.3399999999999996e-01 -1.7051252013584804e+01 -1.3044501263014960e+00 -7.7527133179311714e-01 0 0 0
213 273 10 -8.3399999999999996e-01 -1.7169884597970029e+01 -7.5123199037468880e-01 -4.2557587434388129e+00 0 0 0
214 273 9 4.1699999999999998e-01 -1.6451573163313711e+01 -4.9014790190307328e-01 -3.6602424186024072e+00 0 0 0
221 275 9 4.1699999999999998e-01 -1.7985190438079162e+01 -1.1432534346861041e+00 -1.0290905735663503e+00 0 0 0
254 286 9 4.1699999999999998e-01 -1.8346630885174509e+01 -6.3586694261842158e+00 -4.2181290935033360e+00 0 1 0
25 25 8 0.0000000000000000e+00 -1.4028857174954778e+01 -1.9689510738427423e+00 -6.1035270723327750e-01 0 0 0
209 271 9 4.1699999999999998e-01 -1.8716516107425296e+01 -4.9263840466814474e-01 -6.8837238705209991e+00 0 0 0
637 415 10 -8.3399999999999996e-01 -1.8775672461997118e+01 -6.5459570328765659e+00 6.5438668267477338e+00 1 0 0
10 10 8 0.0000000000000000e+00 -1.3998183856594757e+01 -4.2482235334949525e+00 1.2609326076638172e+00 0 0 0
13 13 8 0.0000000000000000e+00 -1.3497641752517278e+01 -6.4197562698906045e+00 3.3599357492801096e+00 0 0 0
14 14 8 0.0000000000000000e+00 -1.3699182496914421e+01 -4.7908518057311689e+00 5.6486687030793297e+00 0 0 0
237 281 10 -8.3399999999999996e-01 -1.5587513166847570e+01 -2.7437595025528816e-01 6.6041525378727313e+00 0 0 0
26 26 8 0.0000000000000000e+00 -1.3023856928593792e+01 -1.5724465178365572e+00 1.9459659050132161e+00 0 0 0
29 29 8 0.0000000000000000e+00 -1.3922277642396363e+01 -2.1523225636971315e+00 4.7694354362086111e+00 0 0 0
30 30 8 0.0000000000000000e+00 -1.2543488606703299e+01 -5.6844998732664787e-01 6.8536696778115465e+00 0 0 0
189 265 10 -8.3399999999999996e-01 -1.6578411923102262e+01 -5.7545843720530439e+00 1.4334896148733649e+00 0 0 0
190 265 9 4.1699999999999998e-01 -1.6210139706854417e+01 -5.1876849113393728e+00 2.1360011192724051e+00 0 0 0
191 265 9 4.1699999999999998e-01 -1.6567448925721219e+01 -5.1399594062552962e+00 6.7528436777239187e-01 0 0 0
232 279 9 4.1699999999999998e-01 -1.7560434072353331e+01 -2.1550846902503191e+00 2.5122147853144154e+00 0 0 0
193 266 9 4.1699999999999998e-01 -1.9051781992764457e+01 -3.8755823106170064e+00 1.9792342275438102e+00 0 0 0
175 260 9 4.1699999999999998e-01 -1.5831884408496538e+01 -2.2654439684751315e+00 6.2690296069924525e+00 0 0 -1
195 267 10 -8.3399999999999996e-01 -1.8781292903558636e+01 -5.6029311248145328e+00 3.9983344980732594e+00 0 0 0
196 267 9 4.1699999999999998e-01 -1.7878125557149602e+01 -5.9537424953429561e+00 3.8987587485272526e+00 0 0 0
197 267 9 4.1699999999999998e-01 -1.9048450523886153e+01 -5.4795921251779642e+00 3.0672396057878757e+00 0 0 0
198 268 10 -8.3399999999999996e-01 -1.5935647675454915e+01 -4.0374827631490753e+00 3.4842590662375899e+00 0 0 0
199 268 9 4.1699999999999998e-01 -1.5440670124559153e+01 -3.2642793291704315e+00 3.1684283255901033e+00 0 0 0
200 268 9 4.1699999999999998e-01 -1.6824659503905657e+01 -3.6388280577499663e+00 3.5825470260470857e+00 0 0 0
201 269 10 -8.3399999999999996e-01 -1.6130256366342302e+01 -6.4310812830011557e+00 4.7329033622659162e+00 0 0 0
202 269 9 4.1699999999999998e-01 -1.5869639628356364e+01 -5.5816992872082194e+00 4.3105715763685106e+00 0 0 0
203 269 9 4.1699999999999998e-01 -1.5905157595758308e+01 -6.2283558496905318e+00 5.6628493865185252e+00 0 0 0
233 279 9 4.1699999999999998e-01 -1.8722505721600150e+01 -1.9946395310898162e+00 3.4848533783430025e+00 0 0 0
227 277 9 4.1699999999999998e-01 -1.6334757263056758e+01 -1.4923319547111422e+00 8.6031095080535847e-01 0 0 0
239 281 9 4.1699999999999998e-01 -1.6313420285568576e+01 -5.1296268935960077e-01 7.2146536389385725e+00 0 0 0
225 277 10 -8.3399999999999996e-01 -1.6109206909550775e+01 -1.5040718049335522e+00 1.8131442568727443e+00 0 0 0
231 279 10 -8.3399999999999996e-01 -1.8253321367779076e+01 -2.6819336982590998e+00 2.9651055562201711e+00 0 0 0
226 277 9 4.1699999999999998e-01 -1.6185691696817976e+01 -5.5118247774139750e-01 2.0221349677925136e+00 0 0 0
192 266 10 -8.3399999999999996e-01 -1.9664088170556816e+01 -4.5110913217648561e+00 1.5490814736692584e+00 0 0 0
674 427 9 4.1699999999999998e-01 -1.8953690615871917e+01 -3.4243443472271312e-01 4.9211063004827187e+00 1 0 0
638 415 9 4.1699999999999998e-01 -1.8868130419098939e+01 -6.1100629754291269e+00 5.6651687045745733e+00 1 0 0
11 11 8 0.0000000000000000e+00 -1.1903202594760623e+01 -6.1327952514669102e+00 1.0538517740247975e+00 0 0 0
16 16 8 0.0000000000000000e+00 -1.1956864902828233e+01 -3.8371938856154459e+00 3.2916882695054124e+00 0 0 0
639 415 9 4.1699999999999998e-01 -1.9494562082568425e+01 -6.1122406511200680e+00 7.0555180956063719e+00 1 0 0
172 259 9 4.1699999999999998e-01 -1.6331637366210924e+01 -4.5628614432287611e+00 6.9971968973972203e+00 0 0 -1
174 260 10 -8.3399999999999996e-01 -1.6480361310154745e+01 -2.9431660972008675e+00 6.5259049052887086e+00 0 0 -1
176 260 9 4.1699999999999998e-01 -1.7139492060851243e+01 -2.3806897166241887e+00 6.9810949906605835e+00 0 0 -1
171 259 10 -8.3399999999999996e-01 -1.6275469048859783e+01 -5.4954034225308064e+00 7.3198964563358313e+00 0 0 -1
173 259 9 4.1699999999999998e-01 -1.7193299894090984e+01 -5.8013053366608593e+00 7.1964215335553847e+00 0 0 -1
673 427 10 -8.3399999999999996e-01 -1.9631465159277862e+01 -9.4456459730270670e-01 4.5464940496142150e+00 1 0 0
265 290 9 4.1699999999999998e-01 -1.6995397788991966e+01 -7.3703504298214542e+00 7.0259950419976547e-01 0 1 0
33 33 8 0.0000000000000000e+00 -1.2095697391819071e+01 2.0884786485488323e+00 -7.2934707957967451e+00 0 0 0
34 34 8 0.0000000000000000e+00 -1.3521377968592750e+01 3.5055801109369331e+00 -5.2190578234782512e+00 0 0 0
37 37 8 0.0000000000000000e+00 -1.1952441076771763e+01 1.2611758408140694e+00 -4.5573627544561086e+00 0 0 0
38 38 8 0.0000000000000000e+00 -1.2618748228712668e+01 3.1465866361677923e+00 -2.6005301581538696e+00 0 0 0
22 22 8 0.0000000000000000e+00 -1.3418097160656780e+01 3.1435749982047528e-01 -2.3746619820372721e+00 0 0 0
50 50 8 0.0000000000000000e+00 -1.3482355859554819e+01 6.2545234256180864e+00 -5.8338388733239439e+00 0 0 0
53 53 8 0.0000000000000000e+00 -1.4629827119211251e+01 5.2647038848725725e+00 -3.2195489951871585e+00 0 0 0
54 54 8 0.0000000000000000e+00 -1.2828650933337432e+01 5.4356942211423025e+00 -1.0598991919910121e+00 0 0 0
210 272 10 -8.3399999999999996e-01 -1.5687573258980830e+01 2.0604810515687992e+00 -6.8789086845951726e+00 0 0 0
211 272 9 4.1699999999999998e-01 -1.5906825734823421e+01 2.3612541218229492e+00 -5.9737283865366786e+00 0 0 0
260 288 9 4.1699999999999998e-01 -1.7771361419815882e+01 6.8219843433005547e+00 -1.9081373551855507e+00 0 0 0
216 274 10 -8.3399999999999996e-01 -1.8762084315791377e+01 1.3757348226429946e+00 -3.8940576116713213e+00 0 0 0
217 274 9 4.1699999999999998e-01 -1.8200739742112592e+01 2.1122477455687516e+00 -4.2121546666503784e+00 0 0 0
650 419 9 4.1699999999999998e-01 -1.9154763009326693e+01 2.4337582807676400e-01 -2.5849805515458502e+00 1 0 0
222 276 10 -8.3399999999999996e-01 -1.6264854014039884e+01 9.6683071071392224e-01 -2.0506005293973315e+00 0 0 0
223 276 9 4.1699999999999998e-01 -1.5402930506544804e+01 1.3980768509955495e+00 -2.0564324106784286e+00 0 0 0
224 276 9 4.1699999999999998e-01 -1.6852968608720644e+01 1.7505301502381021e+00 -2.0941811774310368e+00 0 0 0
258 288 10 -8.3399999999999996e-01 -1.8084587177315019e+01 6.0848944463692023e+00 -2.4831380383234420e+00 0 0 0
257 287 9 4.1699999999999998e-01 -1.7588604879171822e+01 3.5081046172680321e+00 -9.9072065236977724e-01 0 0 0
256 287 9 4.1699999999999998e-01 -1.7668686581476759e+01 4.4312661924811287e+00 -2.1612964919714486e+00 0 0 0
246 284 10 -8.3399999999999996e-01 -1.6546847118176647e+01 5.5675068760105066e+00 -5.7407065299684259e+00 0 0 0
247 284 9 4.1699999999999998e-01 -1.6552840709614163e+01 5.7407573494990434e+00 -6.7021320680250094e+00 0 0 0
248 284 9 4.1699999999999998e-01 -1.6817739269633581e+01 6.4353965105799862e+00 -5.3893350505014110e+00 0 0 0
249 285 10 -8.3399999999999996e-01 -1.6685839691609782e+01 3.1455636591357439e+00 -4.5716206304424851e+00 0 0 0
250 285 9 4.1699999999999998e-01 -1.6596209993675238e+01 4.0424130448729301e+00 -4.9741197116338789e+00 0 0 0
251 285 9 4.1699999999999998e-01 -1.6764821307671802e+01 3.3744265845795236e+00 -3.6249562091045284e+00 0 0 0
259 288 9 4.1699999999999998e-01 -1.7861966373795678e+01 6.4729122167063311e+00 -3.3486982078610725e+00 0 0 0
215 273 9 4.1699999999999998e-01 -1.7749645696422423e+01 3.6632387794676327e-02 -4.1451864846769526e+00 0 0 0
218 274 9 4.1699999999999998e-01 -1.9658282166867750e+01 1.6666292868785200e+00 -4.1675066833629284e+00 0 0 0
255 287 10 -8.3399999999999996e-01 -1.7382489813327979e+01 3.5143395513738782e+00 -1.9488333562724647e+00 0 0 0
57 57 8 0.0000000000000000e+00 -1.4679343718339144e+01 3.3469344977512168e+00 -6.1282770597318970e-01 0 0 0
683 430 9 4.1699999999999998e-01 -1.9149529358570582e+01 7.0179115146807147e+00 -5.5619138929834451e+00 1 0 0
41 41 8 0.0000000000000000e+00 -1.4197799015666943e+01 7.2176173540655264e-01 4.9636760635786648e-01 0 0 0
42 42 8 0.0000000000000000e+00 -1.4052366582460113e+01 3.0594303929081987e+00 2.2071554469038244e+00 0 0 0
45 45 8 0.0000000000000000e+00 -1.4210246694087033e+01 4.3166668967499089e-01 3.5865532364730046e+00 0 0 0
46 46 8 0.0000000000000000e+00 -1.5060066512900377e+01 2.7167429937958096e+00 4.9717802311423682e+00 0 0 0
241 282 9 4.1699999999999998e-01 -1.6812204679018045e+01 3.9861361382390076e-01 5.5505533632461299e+00 0 0 0
58 58 8 0.0000000000000000e+00 -1.3356636804076633e+01 6.1095593959290149e+00 1.5683273904150907e+00 0 0 0
61 61 8 0.0000000000000000e+00 -1.3814267113402007e+01 5.1751786020992760e+00 4.1353113627776343e+00 0 0 0
62 62 8 0.0000000000000000e+00 -1.3414094335815356e+01 7.1855043234013527e+00 6.0795787109239310e+00 0 0 0
228 278 10 -8.3399999999999996e-01 -1.9506166870589510e+01 5.0691872360158673e-02 1.4922972301709345e+00 0 0 0
229 278 9 4.1699999999999998e-01 -1.8602043695085129e+01 3.6470647851667443e-01 1.7041425939681765e+00 0 0 0
48 48 8 0.0000000000000000e+00 -1.2219012003020751e+01 2.3614062381435308e+00 4.7392334020942002e+00 0 0 0
234 280 10 -8.3399999999999996e-01 -1.7065921944780314e+01 1.0017754179598639e+00 2.4474011332933894e+00 0 0 0
235 280 9 4.1699999999999998e-01 -1.6940832996325049e+01 1.9653937262819439e+00 2.4293657860040030e+00 0 0 0
236 280 9 4.1699999999999998e-01 -1.7213417297541195e+01 8.8092761490762561e-01 3.4113932574962398e+00 0 0 0
240 282 10 -8.3399999999999996e-01 -1.7573754507828742e+01 8.3819712097382704e-01 5.1107813725385913e+00 0 0 0
244 283 9 4.1699999999999998e-01 -1.7458911784862124e+01 4.3385037625388785e+00 6.4107526718976224e+00 0 0 -1
242 282 9 4.1699999999999998e-01 -1.7625140391550968e+01 1.6647298806314648e+00 5.6321741200619071e+00 0 0 0
261 289 10 -8.3399999999999996e-01 -1.8057325787495277e+01 3.9269838965923491e+00 6.8447656163189630e-01 0 0 0
262 289 9 4.1699999999999998e-01 -1.7832851660556663e+01 3.7512266422867575e+00 1.6170032107422210e+00 0 0 0
263 289 9 4.1699999999999998e-01 -1.7778971167253488e+01 4.8704669965163641e+00 6.1735123228006139e-01 0 0 0
264 290 10 -8.3399999999999996e-01 -1.7482801745749306e+01 6.5714672212420604e+00 7.4127256230429595e-01 0 0 0
238 281 9 4.1699999999999998e-01 -1.5272219712688084e+01 5.4572656877610359e-01 7.0455243221899213e+00 0 0 0
266 290 9 4.1699999999999998e-01 -1.8395182158123507e+01 6.9282569985853639e+00 6.8712515151154119e-01 0 0 0
43 43 8 0.0000000000000000e+00 -1.1890478928832081e+01 1.1255232844601857e+00 2.1481872584478454e+00 0 0 0
268 291 9 4.1699999999999998e-01 -1.9225181228863029e+01 3.3791313419437059e+00 3.6869042796401947e+00 0 0 0
245 283 9 4.1699999999999998e-01 -1.8578153210178190e+01 3.3251125588949240e+00 6.5870982423012068e+00 0 0 -1
270 292 10 -8.3399999999999996e-01 -1.6521285554906292e+01 6.1243172662749785e+00 3.2713466305119638e+00 0 0 0
271 292 9 4.1699999999999998e-01 -1.6244111406340259e+01 6.9846992485933095e+00 3.6492059295155541e+00 0 0 0
272 292 9 4.1699999999999998e-01 -1.6747497423861923e+01 6.3806740270897579e+00 2.3547284838736373e+00 0 0 0
273 293 10 -8.3399999999999996e-01 -1.7458466647399071e+01 3.6316275577490531e+00 3.4083312712445690e+00 0 0 0
274 293 9 4.1699999999999998e-01 -1.7058928483606493e+01 4.5370779292097536e+00 3.3739643221389981e+00 0 0 0
275 293 9 4.1699999999999998e-01 -1.7309345254001020e+01 3.4328512601893446e+00 4.3527684930615393e+00 0 0 0
276 294 10 -8.3399999999999996e-01 -1.7022812979477287e+01 6.0613775816659032e+00 6.3765243652512824e+00 0 0 0
277 294 9 4.1699999999999998e-01 -1.6536038523506356e+01 6.3275061091529032e+00 5.5785162717797414e+00 0 0 0
278 294 9 4.1699999999999998e-01 -1.7635048279288785e+01 6.8206039310767190e+00 6.4680515843967443e+00 0 0 0
243 283 10 -8.3399999999999996e-01 -1.7642903227849629e+01 3.3790568856510301e+00 6.2921847593815992e+00 0 0 -1
49 49 8 0.0000000000000000e+00 -1.3728009630347614e+01 4.3581557488501845e+00 6.8588504780165538e+00 0 0 -1
212 272 9 4.1699999999999998e-01 -1.6238448033049909e+01 2.6597128022040750e+00 7.3849740170690987e+00 0 0 -1
3 3 8 0.0000000000000000e+00 -1.0844244421940166e+01 -6.3335192077299514e+00 -4.4051482174736920e+00 0 0 0
4 4 8 0.0000000000000000e+00 -1.0810673316437715e+01 -4.6027321437834381e+00 -6.7011956004381350e+00 0 0 0
85 85 8 0.0000000000000000e+00 -7.6742087644804720e+00 -2.3414126650574043e+00 -3.3905082210188060e+00 0 0 0
8 8 8 0.0000000000000000e+00 -1.0314832242958067e+01 -4.5534828083169288e+00 -2.0127029681963577e+00 0 0 0
19 19 8 0.0000000000000000e+00 -1.0127193124726659e+01 -3.2150512888947307e+00 -4.4017369554637327e+00 0 0 0
20 20 8 0.0000000000000000e+00 -1.0099046959534578e+01 -1.5611283717399336e+00 -6.6994148381513314e+00 0 0 0
88 88 8 0.0000000000000000e+00 -5.6692592991354678e+00 -2.3334430295122202e-01 -3.4522366333529160e+00 0 0 0
24 24 8 0.0000000000000000e+00 -9.8248059073241514e+00 -5.0188896937088401e-01 -3.8035479908435006e+00 0 0 0
65 65 8 0.0000000000000000e+00 -8.4777324433680636e+00 -6.3780310311962563e+00 -6.5833646780623036e+00 0 0 0
66 66 8 0.0000000000000000e+00 -8.2089432182579092e+00 -5.3048102131149886e+00 -3.8504215334674194e+00 0 0 0
67 67 8 0.0000000000000000e+00 -5.8702288822570816e+00 -5.5047661008440949e+00 -5.8552071112630557e+00 0 0 0
86 86 8 0.0000000000000000e+00 -9.3937680024009982e+00 -1.9942480164658170e+00 -9.7997463828005915e-01 0 0 0
87 87 8 0.0000000000000000e+00 -5.8842250018388969e+00 -1.9818196995112913e+00 -1.1895483925117254e+00 0 0 0
70 70 8 0.0000000000000000e+00 -7.6077007771946068e+00 -4.1725030864376320e+00 -1.2021598445775832e+00 0 0 0
71 71 8 0.0000000000000000e+00 -6.6720961670209213e+00 -6.7408524724946437e+00 -1.5009183419242245e+00 0 0 0
72 72 8 0.0000000000000000e+00 -4.1861175327721281e+00 -6.7531860685244807e+00 -2.8581973641329284e+00 0 0 0
81 81 8 0.0000000000000000e+00 -7.9765653768783942e+00 -3.4943581764797753e+00 -6.1288485628227596e+00 0 0 0
82 82 8 0.0000000000000000e+00 -7.5808382759181585e+00 -5.9685345593089956e-01 -5.6448777179822391e+00 0 0 0
83 83 8 0.0000000000000000e+00 -5.6160316587526991e+00 -4.2985337102589014e+00 -3.2659272064461566e+00 0 0 0
84 84 8 0.0000000000000000e+00 -5.4062185754788992e+00 -2.4543866071145604e+00 -5.4441124485231063e+00 0 0 0
76 76 8 0.0000000000000000e+00 -4.7112052095545325e+00 -4.7250008664212677e+00 -6.3953246538855646e-01 0 0 0
7 7 8 0.0000000000000000e+00 -1.1615727750926265e+01 -6.9604125365160376e+00 -1.6133244601297676e+00 0 0 0
28 28 8 0.0000000000000000e+00 -1.1641192440256152e+01 -3.0327126580488845e-01 -3.0996794887343437e-01 0 0 0
73 73 8 0.0000000000000000e+00 -9.2475202733315456e+00 -6.2167567214129207e+00 -2.9203024840788974e-02 0 0 0
23 23 8 0.0000000000000000e+00 -1.1827849530281254e+01 -2.1573676739453505e+00 -2.3918660000673961e+00 0 0 0
77 77 8 0.0000000000000000e+00 -8.6516983588558993e+00 -7.1360018033823760e+00 4.8071899321154579e+00 0 0 0
94 94 8 0.0000000000000000e+00 -7.8593833942825357e+00 -1.5412385111443563e+00 6.3622814510375747e+00 0 0 0
15 15 8 0.0000000000000000e+00 -1.1129704980165970e+01 -5.8499940860538047e+00 5.3315495393102941e+00 0 0 0
12 12 8 0.0000000000000000e+00 -1.1357816268751186e+01 -3.4031271078554499e+00 4.3463422417190706e-01 0 0 0
27 27 8 0.0000000000000000e+00 -1.0127965122223165e+01 -1.2245721112135619e+00 1.8460674177476319e+00 0 0 0
95 95 8 0.0000000000000000e+00 -6.1702261913192720e+00 -2.1768060162907488e+00 4.1579129053515471e+00 0 0 0
31 31 8 0.0000000000000000e+00 -1.1299217591948491e+01 -2.9812033203594246e+00 5.9062850094393342e+00 0 0 0
32 32 8 0.0000000000000000e+00 -1.1550822267401417e+01 -7.6562309381656890e-01 4.1725196265021651e+00 0 0 0
299 301 9 4.1699999999999998e-01 -3.9887871781749396e+00 -5.5353331583189131e+00 2.8488845943606909e+00 0 0 0
74 74 8 0.0000000000000000e+00 -9.7292664974773864e+00 -5.4615848423933482e+00 2.7859717443176328e+00 0 0 0
75 75 8 0.0000000000000000e+00 -6.7442221901750203e+00 -5.7048804285109469e+00 1.1512287365821374e+00 0 0 0
305 303 9 4.1699999999999998e-01 -5.1695806678466685e+00 -4.5934663178052038e+00 4.5600598519512028e+00 0 0 0
109 109 8 0.0000000000000000e+00 -8.0038446987084928e+00 -7.4540095529324946e-02 3.7420643225492314e+00 0 0 0
78 78 8 0.0000000000000000e+00 -8.7163470559724221e+00 -4.4754774267243000e+00 6.1204185162371134e+00 0 0 0
79 79 8 0.0000000000000000e+00 -6.3298513643706995e+00 -6.3545616883899960e+00 6.1508311749239013e+00 0 0 0
80 80 8 0.0000000000000000e+00 -7.1701682909895235e+00 -4.7630238444301520e+00 3.7784031876837130e+00 0 0 0
89 89 8 0.0000000000000000e+00 -8.5013122196885949e+00 -3.4665327852324577e+00 1.3415945770149060e+00 0 0 0
90 90 8 0.0000000000000000e+00 -7.4605841172959728e+00 -8.4466048021771911e-01 9.6460547543595510e-01 0 0 0
91 91 8 0.0000000000000000e+00 -5.6427266062080861e+00 -3.0438966567046761e+00 1.5134335308534048e+00 0 0 0
128 128 8 0.0000000000000000e+00 -5.9192281591320679e+00 -7.2925549465903687e+00 3.3790001901036248e+00 0 1 0
93 93 8 0.0000000000000000e+00 -9.2001933416012598e+00 -2.6936590023910143e+00 4.0181081163859753e+00 0 0 0
68 68 8 0.0000000000000000e+00 -5.9172027523828845e+00 -3.5975061692098440e+00 6.6678494862648554e+00 0 0 -1
303 303 10 -8.3399999999999996e-01 -4.2458959000699359e+00 -4.8068651089260648e+00 4.3893826025684257e+00 0 0 0
96 96 8 0.0000000000000000e+00 -5.1465087169210841e+00 -1.2959018912663087e-01 2.4107950565884391e+00 0 0 0
35 35 8 0.0000000000000000e+00 -9.6728795693728422e+00 1.3030846937327487e+00 -6.1196035437441196e+00 0 0 0
120 120 8 0.0000000000000000e+00 -6.6876564644840624e+00 7.1006795582107758e+00 -4.1366066473682359e+00 0 0 0
39 39 8 0.0000000000000000e+00 -1.0327412269585661e+01 1.6004642476287001e+00 -2.0319913070636400e+00 0 0 0
40 40 8 0.0000000000000000e+00 -1.0199997540656213e+01 3.4293541226834821e+00 -4.2194725529242705e+00 0 0 0
51 51 8 0.0000000000000000e+00 -1.1165532029019611e+01 4.6008978691031333e+00 -6.5138598067491067e+00 0 0 0
52 52 8 0.0000000000000000e+00 -1.1079723191641163e+01 7.3526674715174929e+00 -7.0810649454817414e+00 0 0 0
55 55 8 0.0000000000000000e+00 -1.0127694580886898e+01 4.4799841584834823e+00 -1.6061057321953049e+00 0 0 0
103 103 8 0.0000000000000000e+00 -5.4845731036031271e+00 8.5569223402955463e-01 -3.6152028704158212e-01 0 0 0
101 101 8 0.0000000000000000e+00 -7.8596152642869619e+00 1.1824228256315898e-01 -1.6984864536369675e+00 0 0 0
98 98 8 0.0000000000000000e+00 -7.9449269945983936e+00 1.7668749850324139e+00 -3.9152775656297685e+00 0 0 0
99 99 8 0.0000000000000000e+00 -5.6350530460786992e+00 1.6733052632389653e+00 -5.5841453581538421e+00 0 0 0
56 56 8 0.0000000000000000e+00 -1.1695454954098318e+01 5.7768600730102220e+00 -3.6920466197415465e+00 0 0 0
117 117 8 0.0000000000000000e+00 -7.7825188765733522e+00 4.5717385377022595e+00 -3.2316700979906692e+00 0 0 0
102 102 8 0.0000000000000000e+00 -7.8374305150515706e+00 2.8185521845930586e+00 -1.0117399453692799e+00 0 0 0
119 119 8 0.0000000000000000e+00 -5.3601299483998952e+00 5.5027999807644674e+00 -2.0952416540292833e+00 0 0 0
104 104 8 0.0000000000000000e+00 -5.5236307160311133e+00 2.6236628094454191e+00 -2.6668302371802897e+00 0 0 0
113 113 8 0.0000000000000000e+00 -8.0259033447613355e+00 3.6970319317647373e+00 -6.0959027831422761e+00 0 0 0
114 114 8 0.0000000000000000e+00 -9.2174141674120680e+00 6.1202276363268151e+00 -5.1380251567768429e+00 0 0 0
115 115 8 0.0000000000000000e+00 -5.4652880169443883e+00 4.4793509595379533e+00 -4.8646054241019803e+00 0 0 0
116 116 8 0.0000000000000000e+00 -6.4232336591861747e+00 6.2957001405930431e+00 -6.7826863931768537e+00 0 0 0
69 69 8 0.0000000000000000e+00 -9.1227557347149606e+00 7.0617394489352856e+00 -2.5033960980303833e+00 0 -1 0
118 118 8 0.0000000000000000e+00 -7.7547457870508270e+00 5.6514144157037078e+00 -4.3800784205499155e-01 0 0 0
111 111 8 0.0000000000000000e+00 -5.5012468446167091e+00 4.5689155804344328e-01 5.1966341337382183e+00 0 0 0
126 126 8 0.0000000000000000e+00 -8.9064634679310899e+00 5.7706667676464001e+00 6.8530847847497949e+00 0 0 0
36 36 8 0.0000000000000000e+00 -9.6115045569020641e+00 3.1230030518354637e+00 6.2757127233546202e+00 0 0 -1
127 127 8 0.0000000000000000e+00 -6.5744257333365548e+00 5.5682784728428736e+00 5.2560874452072976e+00 0 0 0
59 59 8 0.0000000000000000e+00 -1.1505935896690355e+01 4.1875085368817873e+00 2.6948444365393214e+00 0 0 0
60 60 8 0.0000000000000000e+00 -1.0642424069398739e+01 6.1449079262263586e+00 5.7336456730665586e-01 0 0 0
63 63 8 0.0000000000000000e+00 -1.1375479175608055e+01 5.2353526549732141e+00 5.5356035725171306e+00 0 0 0
64 64 8 0.0000000000000000e+00 -1.1069875154857487e+01 6.9078664224368591e+00 3.2949107302980969e+00 0 0 0
105 105 8 0.0000000000000000e+00 -9.4687286544106932e+00 1.1986837543607729e+00 6.3121189111664022e-01 0 0 0
106 106 8 0.0000000000000000e+00 -9.6698981628108918e+00 2.1206983858393254e+00 3.4829990649138378e+00 0 0 0
107 107 8 0.0000000000000000e+00 -7.0745074385641455e+00 1.9539607983917777e+00 1.8396602432746250e+00 0 0 0
108 108 8 0.0000000000000000e+00 -5.4185526350100552e+00 3.7177982009918651e+00 1.6088217470314553e-01 0 0 0
47 47 8 0.0000000000000000e+00 -9.9137630605612159e+00 3.9635885129229637e-01 5.9756596414572067e+00 0 0 0
110 110 8 0.0000000000000000e+00 -7.1985513423988916e+00 2.7797559816606907e+00 4.6290861750342200e+00 0 0 0
125 125 8 0.0000000000000000e+00 -9.0464130100928575e+00 4.8950262203614967e+00 4.0096066365129674e+00 0 0 0
112 112 8 0.0000000000000000e+00 -4.6906638742429596e+00 2.6376538375310701e+00 3.2708417151181637e+00 0 0 0
121 121 8 0.0000000000000000e+00 -9.0927458875937859e+00 3.9191886637060724e+00 1.2985860910589164e+00 0 0 0
122 122 8 0.0000000000000000e+00 -8.3718177264320506e+00 6.8832499334543851e+00 2.0702505169581684e+00 0 0 0
123 123 8 0.0000000000000000e+00 -6.5804215760288027e+00 4.7454396885959707e+00 2.5077402891214313e+00 0 0 0
124 124 8 0.0000000000000000e+00 -5.3094199444014203e+00 6.6392179855506930e+00 6.2501232481652269e-01 0 0 0
97 97 8 0.0000000000000000e+00 -7.4494994390419178e+00 1.2908117693602881e+00 7.0219606621169097e+00 0 0 -1
100 100 8 0.0000000000000000e+00 -5.7402352903645930e+00 3.5600800544362352e+00 7.0273712361900884e+00 0 0 -1
44 44 8 0.0000000000000000e+00 -1.1805839966333776e+01 2.9888946736892295e+00 1.1712915709609027e-01 0 0 0
138 129 1 8.9999999999999997e-02 1.5354475628169091e+00 -2.3775283615942233e+00 -6.6447705125339362e-01 0 0 0
412 339 9 4.1699999999999998e-01 3.6982851408396802e+00 -7.1330607564716795e+00 -6.1563236856506949e+00 0 1 0
280 295 9 4.1699999999999998e-01 -3.1271307938897586e+00 -6.8436384449069658e+00 -5.4374772952585193e+00 0 0 0
282 296 10 -8.3399999999999996e-01 -2.9336934770713357e+00 -4.9687921104131227e+00 -5.0354926134498399e+00 0 0 0
283 296 9 4.1699999999999998e-01 -3.8749269438692524e+00 -4.8830642362511805e+00 -5.2373359935633275e+00 0 0 0
284 296 9 4.1699999999999998e-01 -2.8303602039534068e+00 -4.1971367182590491e+00 -4.4245780543623887e+00 0 0 0
285 297 10 -8.3399999999999996e-01 -1.1681797539617267e+00 -5.6257415458547007e+00 -2.7062166187552337e+00 0 0 0
286 297 9 4.1699999999999998e-01 -6.8564823777358164e-01 -4.7766026972001816e+00 -2.8164908147633385e+00 0 0 0
287 297 9 4.1699999999999998e-01 -1.7972507076509967e+00 -5.5703990578612634e+00 -3.4431518061362509e+00 0 0 0
288 298 10 -8.3399999999999996e-01 -2.8298433636334392e+00 -2.8878527025397891e+00 -3.3315742204736276e+00 0 0 0
289 298 9 4.1699999999999998e-01 -2.4092390862597766e+00 -2.4892538760871932e+00 -2.5452348848922086e+00 0 0 0
291 299 10 -8.3399999999999996e-01 -2.2401531388321572e+00 -6.7509374471171730e+00 -4.3986025748533469e-01 0 0 0
292 299 9 4.1699999999999998e-01 -1.9302229728816140e+00 -6.2697883407292911e+00 -1.2386709545183232e+00 0 0 0
306 304 10 -8.3399999999999996e-01 -2.8526383353110334e+00 -7.5430701059039018e-01 -5.0875312694509160e+00 0 0 0
307 304 9 4.1699999999999998e-01 -1.9217774457977859e+00 -6.3792731240022860e-01 -5.3397545184223185e+00 0 0 0
312 306 10 -8.3399999999999996e-01 -1.0642938086545095e+00 -1.7646969681759930e+00 -1.3556358361888601e+00 0 0 0
313 306 9 4.1699999999999998e-01 -9.4614887928336922e-01 -8.1231644843153228e-01 -1.1510476661141820e+00 0 0 0
314 306 9 4.1699999999999998e-01 -9.7305672113438990e-01 -2.1460731819337524e+00 -4.6534746723231091e-01 0 0 0