LAMMPS data file via write_data, version 16 Mar 2018, timestep = 500000

1144 atoms
12 atom types
583 bonds
8 bond types
350 angles
13 angle types
132 dihedrals
18 dihedral types

-1.2173229972287317e+01 1.2173229972287317e+01 xlo xhi
-1.2173229972287317e+01 1.2173229972287317e+01 ylo yhi
-1.2173229972287317e+01 1.2173229972287317e+01 zlo zhi

Masses

1 1.008
2 1.008
3 12.011
4 12.011
5 15.9994
6 15.9994
7 32.06
8 196.966
9 1.008
10 15.9994
11 35.45
12 22.9898

Pair Coeffs # lj/charmmfsw/coul/long

1 0.028 2.38761 0.028 2.38761
2 0.024 2.38761 0.024 2.38761
3 0.056 3.58141 0.01 3.38542
4 0.078 3.63487 0.01 3.38542
5 0.1 2.93997 0.1 2.93997
6 0.12 3.02906 0.12 3.02906
7 0.47 3.74177 0.47 3.74177
8 5.29 2.62904 5.29 2.62904
9 0.046 0.400014 0.046 0.400014
10 0.1521 3.15057 0.1521 3.15057
11 0.15 4.04468 0.15 4.04468
12 0.0469 2.42993 0.0469 2.42993

Bond Coeffs # harmonic/omp

1 222.5 1.53
2 222.5 1.528
3 309 1.111
4 340 1.43
5 322 1.111
6 450 0.9572
7 540 1.448
8 250 1.575

Angle Coeffs # charmm/omp

1 58.35 113.6 11.16 2.561
2 58 115 8 2.561
3 26.5 110.1 22.53 2.179
4 75.7 110.1 0 0
5 34.6 110.1 22.53 2.179
6 15 109 27 1.9
7 34.6 110.1 22.53 2.179
8 35.5 109 5.4 1.802
9 60 109.5 0 0
10 35.5 108.4 5.4 1.802
11 55 104.52 0 0
12 130 109.47 35 2.45
13 85 98 0 0

Dihedral Coeffs # charmmfsw

1 0.101 2 0 1
2 0.142 3 180 0
3 0.074 4 0 0
4 0.097 5 0 0
5 0.162 2 0 1
6 0.047 3 180 0
7 0.105 4 0 0
8 0.177 5 0 0
9 0.19 3 0 1
10 0 3 0 1
11 0.16 3 0 1
12 0 3 0 1
13 0 3 0 1
14 0.19 3 0 1
15 0.19 3 0 1
16 0.19 3 0 1
17 0.16 3 0 1
18 0 3 0 1

Atoms # full

1 1 8 0.0000000000000000e+00 -8.4268734365980382e+00 -9.9590012359240916e+00 -1.0574315665087219e+01 0 0 0
2 2 8 0.0000000000000000e+00 -8.1797555106594704e+00 -7.8795763302290709e+00 -8.6690239930764310e+00 0 0 0
25 25 8 0.0000000000000000e+00 -8.3127255187673050e+00 -5.9930289732578057e+00 -1.0791839565723162e+01 0 0 0
26 26 8 0.0000000000000000e+00 -8.3499657511846852e+00 -3.9936513347237916e+00 -8.7947018276402495e+00 0 0 0
49 49 8 0.0000000000000000e+00 -8.2687752470954496e+00 -1.8361776862489201e+00 -1.0751506999927171e+01 0 0 0
148 148 8 0.0000000000000000e+00 -1.9912723151638563e+00 -7.8966569167565348e+00 -1.0749335184814374e+01 0 0 0
974 794 10 -8.3399999999999996e-01 -1.0900671194970903e+01 -3.6347840040412329e+00 -1.0736126659769289e+01 1 0 1
985 797 9 4.1699999999999998e-01 -1.0041347755219441e+01 -2.4123294676913893e+00 -8.3937070272784524e+00 1 0 0
926 778 10 -8.3399999999999996e-01 -1.0779215717187849e+01 -6.2462024414684052e+00 -8.5559967541143003e+00 1 0 0
171 171 8 0.0000000000000000e+00 -1.9479488263583171e+00 -5.7877752840561518e+00 -8.8488149753066239e+00 0 0 0
928 778 9 4.1699999999999998e-01 -1.0703673643612976e+01 -6.3014189051307028e+00 -9.5085493716731015e+00 1 0 0
268 268 8 0.0000000000000000e+00 -1.9117560062570220e+00 -1.2104020988611721e+01 -1.0764405054903730e+01 0 1 0
392 599 9 4.1699999999999998e-01 -1.1277270206807151e+01 -7.1001082342327670e-01 -7.6218400391737999e+00 0 0 0
976 794 9 4.1699999999999998e-01 -1.0603636080041245e+01 -3.1264479854390093e+00 -1.1490763558510563e+01 1 0 1
122 122 8 0.0000000000000000e+00 -8.2355423275899575e+00 -1.2133629534336462e+01 -8.6596050187967890e+00 0 1 0
833 747 10 -8.3399999999999996e-01 -1.0756771267939065e+01 -8.0227839228045941e+00 -1.1162964473919647e+01 1 0 0
927 778 9 4.1699999999999998e-01 -1.0109548566497811e+01 -5.6126838693595058e+00 -8.2984854192325272e+00 1 0 0
266 266 8 0.0000000000000000e+00 -4.2279120873445626e+00 -1.2049591219562057e+01 -8.6332206622565799e+00 0 1 0
147 147 8 0.0000000000000000e+00 -2.0354849939209689e+00 -9.9570899966711934e+00 -8.9031544149788253e+00 0 0 0
331 579 10 -8.3399999999999996e-01 -1.0951560646567389e+01 -9.6158324916276943e+00 -8.7823088500968627e+00 0 0 0
172 172 8 0.0000000000000000e+00 -1.9380982881614024e+00 -3.8384940542232364e+00 -1.0828954443812382e+01 0 0 0
124 124 8 0.0000000000000000e+00 -6.2397538110074953e+00 -1.2063696275449511e+01 -1.0747029324369759e+01 0 1 0
983 797 10 -8.3399999999999996e-01 -1.0664619872004813e+01 -1.8062032531313204e+00 -8.7940254642415923e+00 1 0 0
975 794 9 4.1699999999999998e-01 -1.1731298065061837e+01 -4.0184476348109737e+00 -1.1017148779781390e+01 1 0 1
3 3 8 0.0000000000000000e+00 -6.2266852980072374e+00 -9.9963648279683603e+00 -8.7102264324134424e+00 0 0 0
4 4 8 0.0000000000000000e+00 -6.2259385416894819e+00 -7.9693309371324936e+00 -1.0676785449400256e+01 0 0 0
27 27 8 0.0000000000000000e+00 -6.1392172425874207e+00 -5.8466726395190651e+00 -8.8038428286370234e+00 0 0 0
28 28 8 0.0000000000000000e+00 -6.1856197306388827e+00 -3.9026011960699432e+00 -1.0825238606618182e+01 0 0 0
51 51 8 0.0000000000000000e+00 -6.3761342949817372e+00 -1.8247577588526820e+00 -8.7836690532192954e+00 0 0 0
420 608 9 4.1699999999999998e-01 -1.0866634473120190e+01 -2.8919760721265142e-01 -1.0610289052952966e+01 0 0 1
145 145 8 0.0000000000000000e+00 -4.0675319281802107e+00 -1.0090927258808758e+01 -1.0778327113529697e+01 0 0 0
146 146 8 0.0000000000000000e+00 -4.1126896007353775e+00 -7.9647535765612503e+00 -8.7248662292971595e+00 0 0 0
169 169 8 0.0000000000000000e+00 -4.0871579654190615e+00 -5.9709073417503129e+00 -1.0758612463702399e+01 0 0 0
170 170 8 0.0000000000000000e+00 -4.1261158623799634e+00 -3.9012285821386197e+00 -8.8122397863968889e+00 0 0 0
193 193 8 0.0000000000000000e+00 -4.1449238766396501e+00 -1.8312212195069204e+00 -1.0737776428218043e+01 0 0 0
195 195 8 0.0000000000000000e+00 -2.0415892297131233e+00 -1.8594273098989635e+00 -8.8039018677915450e+00 0 0 0
456 620 9 4.1699999999999998e-01 -1.0619228013129865e+01 -1.1376196859850767e+01 -1.1536778001441885e+01 0 1 0
984 797 9 4.1699999999999998e-01 -1.1054749384002642e+01 -2.3032473598439740e+00 -9.5129538994123806e+00 1 0 0
640 682 12 1.0000000000000000e+00 -1.1288006219112052e+01 -1.1822522826069745e+01 -8.6941063291030112e+00 1 0 0
834 747 9 4.1699999999999998e-01 -1.0847313188599799e+01 -8.7455656192660456e+00 -1.1783851506175687e+01 1 0 0
332 579 9 4.1699999999999998e-01 -1.1178529355686580e+01 -8.8920442250615483e+00 -8.1985894056679527e+00 0 0 0
333 579 9 4.1699999999999998e-01 -1.1033907703028779e+01 -9.2490939304278843e+00 -9.6625552867672404e+00 0 0 0
835 747 9 4.1699999999999998e-01 -1.0586836766068711e+01 -7.2561596668218824e+00 -1.1710250001581864e+01 1 0 0
454 620 10 -8.3399999999999996e-01 -1.0774475797487863e+01 -1.2116399788793325e+01 -1.0950169116841991e+01 0 1 0
150 150 8 0.0000000000000000e+00 -4.1086742728319638e+00 -8.0106158638390017e+00 -4.7213981694494516e+00 0 0 0
6 6 8 0.0000000000000000e+00 -8.1772905566483409e+00 -8.0303251261209176e+00 -4.6956108560979013e+00 0 0 0
695 701 10 -8.3399999999999996e-01 -1.1367017465563784e+01 -9.3092822886174318e+00 -5.1417760069011198e+00 1 -1 0
152 152 8 0.0000000000000000e+00 -1.9063840884793493e+00 -7.9316786221722770e+00 -6.7741015783287599e+00 0 0 0
30 30 8 0.0000000000000000e+00 -8.3729504785085407e+00 -3.9132297075000810e+00 -4.6001388920037440e+00 0 0 0
341 582 9 4.1699999999999998e-01 -1.1370074358127006e+01 -3.2582674613441647e+00 -6.0739313502857701e+00 0 0 0
340 582 10 -8.3399999999999996e-01 -1.1041885837214316e+01 -4.0165352818118691e+00 -6.5570817709239346e+00 0 0 0
9 9 8 0.0000000000000000e+00 -8.1494415534162297e+00 -1.0025426109636225e+01 -2.5729645337800555e+00 0 0 0
270 270 8 0.0000000000000000e+00 -3.9985905987697681e+00 -1.2109314309080233e+01 -4.6146848714549584e+00 0 1 0
8 8 8 0.0000000000000000e+00 -6.0767112048626499e+00 -7.9507040371798663e+00 -6.6895131637760779e+00 0 0 0
126 126 8 0.0000000000000000e+00 -8.3138811550549612e+00 -1.1959956440774290e+01 -4.6232618399601648e+00 0 1 0
716 708 10 -8.3399999999999996e-01 -1.0875701872663496e+01 -6.2509223403543812e+00 -4.6622759503482412e+00 1 -1 0
36 36 8 0.0000000000000000e+00 -6.1100748866225230e+00 -3.8906325545276399e+00 -2.7522949848953555e+00 0 0 0
1105 837 9 4.1699999999999998e-01 -1.0890232940700070e+01 -1.0980721358630879e+01 -5.9237980621706239e+00 1 1 0
29 29 8 0.0000000000000000e+00 -8.3726182865323526e+00 -5.9975430951787754e+00 -6.7132180756071076e+00 0 0 0
149 149 8 0.0000000000000000e+00 -4.0249694444651691e+00 -9.9982835736368294e+00 -6.6498307223406519e+00 0 0 0
199 199 8 0.0000000000000000e+00 -2.0411536864036641e+00 -1.9506841156051635e+00 -4.7288373518515812e+00 0 0 0
33 33 8 0.0000000000000000e+00 -8.2890793813494561e+00 -6.0493797932887752e+00 -2.7750353191393593e+00 0 0 0
32 32 8 0.0000000000000000e+00 -6.3016243156092058e+00 -3.9101665423310834e+00 -6.8796007338255034e+00 0 0 0
201 201 8 0.0000000000000000e+00 -4.1327976818132122e+00 -1.8596230773762823e+00 -2.6850504325388780e+00 0 0 0
12 12 8 0.0000000000000000e+00 -6.1677868171770696e+00 -7.9644618174404007e+00 -2.5960832620417253e+00 0 0 0
132 132 8 0.0000000000000000e+00 -6.0589749302662943e+00 -1.2014632118626357e+01 -2.6120324943374040e+00 0 1 0
935 781 10 -8.3399999999999996e-01 -1.1263195990598154e+01 -2.1412453469807105e+00 -4.3629556917850829e+00 1 0 0
197 197 8 0.0000000000000000e+00 -4.2828228838810460e+00 -1.8958773158040323e+00 -6.8152853450230735e+00 0 0 0
622 676 10 -8.3399999999999996e-01 -1.1128703140306994e+01 -1.1627409273616934e+01 -3.0878610901801924e+00 1 1 -2
180 180 8 0.0000000000000000e+00 -1.9477285550202819e+00 -3.9256437003194140e+00 -2.6816446115672363e+00 0 0 0
717 708 9 4.1699999999999998e-01 -1.1795396708964068e+01 -6.5140081816068003e+00 -4.6297308455578472e+00 1 -1 0
718 708 9 4.1699999999999998e-01 -1.0457158385929421e+01 -6.7546782629436963e+00 -3.9643051060309986e+00 1 -1 0
176 176 8 0.0000000000000000e+00 -1.9651108856767188e+00 -3.8027769054592433e+00 -6.7729967473249051e+00 0 0 0
5 5 8 0.0000000000000000e+00 -8.4423911088334229e+00 -1.0035689738538689e+01 -6.7017515601217053e+00 0 0 0
53 53 8 0.0000000000000000e+00 -8.4600644210657627e+00 -1.8077559124306894e+00 -6.6564649394076820e+00 0 0 0
175 175 8 0.0000000000000000e+00 -2.0562784873060984e+00 -5.9125821959827771e+00 -4.7100623015639460e+00 0 0 0
697 701 9 4.1699999999999998e-01 -1.1795588803653899e+01 -8.7633661033737997e+00 -5.8008771170489162e+00 1 -1 0
936 781 9 4.1699999999999998e-01 -1.0947209957477838e+01 -2.7269372507317033e+00 -3.6750381355707233e+00 1 0 0
7 7 8 0.0000000000000000e+00 -6.1217758639777013e+00 -1.0011292845677829e+01 -4.6566384606915685e+00 0 0 0
151 151 8 0.0000000000000000e+00 -1.8675537880901185e+00 -9.9844378914342116e+00 -4.5440390784063682e+00 0 0 0
854 754 10 -8.3399999999999996e-01 -1.0798604855754775e+01 -8.1850052890682612e+00 -2.6588048428420521e+00 1 1 1
31 31 8 0.0000000000000000e+00 -6.1995968318609167e+00 -5.9537442450444402e+00 -4.6873707906043283e+00 0 0 0
937 781 9 4.1699999999999998e-01 -1.0902331405122300e+01 -1.2849399698442205e+00 -4.1335430952380374e+00 1 0 0
696 701 9 4.1699999999999998e-01 -1.1114101176028985e+01 -8.6971915634232104e+00 -4.4507692640344203e+00 1 -1 0
55 55 8 0.0000000000000000e+00 -6.2087527568545946e+00 -1.9829537644251687e+00 -4.7887828537482786e+00 0 0 0
156 156 8 0.0000000000000000e+00 -2.0601533713346782e+00 -7.8625126276499246e+00 -2.6707456870906547e+00 0 0 0
174 174 8 0.0000000000000000e+00 -4.0884758156382173e+00 -3.9357322172523936e+00 -4.8299719587557401e+00 0 0 0
177 177 8 0.0000000000000000e+00 -4.0645891875196529e+00 -5.8043098678797227e+00 -2.7077814555669395e+00 0 0 0
153 153 8 0.0000000000000000e+00 -4.0133000382753696e+00 -1.0001934952776189e+01 -2.5352061662845724e+00 0 0 0
623 676 9 4.1699999999999998e-01 -1.1343091104367888e+01 -1.0985339583677421e+01 -3.7645416071850715e+00 1 1 -2
173 173 8 0.0000000000000000e+00 -4.0596989805797037e+00 -5.9722605791676626e+00 -6.7579469164134363e+00 0 0 0
57 57 8 0.0000000000000000e+00 -8.3476643015728076e+00 -1.9159253268389040e+00 -2.7368739812561333e+00 0 0 0
128 128 8 0.0000000000000000e+00 -6.1295340646073289e+00 -1.2008379571292087e+01 -6.6554933791712712e+00 0 1 0
272 272 8 0.0000000000000000e+00 -2.0193385164026019e+00 -1.2168686769947067e+01 -6.7615640382690803e+00 0 1 0
276 276 8 0.0000000000000000e+00 -1.9084002411273051e+00 -1.2035587085417522e+01 -2.7048958409530872e+00 0 1 0
1103 837 10 -8.3399999999999996e-01 -1.0966792217809537e+01 -1.1796857744178862e+01 -6.4179359466261818e+00 1 1 0
342 582 9 4.1699999999999998e-01 -1.1036708671181090e+01 -4.7263276475712992e+00 -5.9149914190241395e+00 0 0 0
877 761 9 4.1699999999999998e-01 -1.1851353746374372e+01 -7.0018145944828687e+00 -7.2749906538748812e+00 1 0 0
10 10 8 0.0000000000000000e+00 -8.2490438452425270e+00 -7.8988864403015491e+00 -5.9325957296757004e-01 0 0 0
34 34 8 0.0000000000000000e+00 -8.1596456522394334e+00 -4.0352248915946412e+00 -6.2894603268326854e-01 0 0 0
855 754 9 4.1699999999999998e-01 -1.0471005115469749e+01 -8.9200850753714178e+00 -2.1406850232694374e+00 1 1 1
130 130 8 0.0000000000000000e+00 -8.2618355065313480e+00 -1.2068122009697186e+01 -4.8785266436706642e-01 0 1 0
953 787 10 -8.3399999999999996e-01 -1.1080498976012002e+01 -1.7095637930183472e+00 -3.6035200952774282e-01 1 0 0
667 691 9 4.1699999999999998e-01 -1.0850059718839345e+01 -8.7324634843010536e+00 2.0018854173410805e+00 1 -1 0
665 691 10 -8.3399999999999996e-01 -1.0634735374469933e+01 -8.0146315374018648e+00 1.4065157502429404e+00 1 -1 0
351 585 9 4.1699999999999998e-01 -1.1062357011279907e+01 -1.1703545629409373e+01 1.6344081475521737e+00 0 0 0
136 136 8 0.0000000000000000e+00 -6.1484133372006156e+00 -1.2032513969688171e+01 1.3385729073135213e+00 0 1 0
181 181 8 0.0000000000000000e+00 -4.0719189660774386e+00 -5.9732257131896516e+00 1.4953289631950462e+00 0 0 0
184 184 8 0.0000000000000000e+00 -2.0927575596346308e+00 -3.8634589655551324e+00 1.4912185579752713e+00 0 0 0
736 714 9 4.1699999999999998e-01 -1.0738027533924244e+01 -4.7431138499041117e+00 -1.5368183757267637e+00 1 0 0
13 13 8 0.0000000000000000e+00 -8.2620698231949561e+00 -9.9307481048749047e+00 1.4203157956268520e+00 0 0 0
37 37 8 0.0000000000000000e+00 -8.3485366994347263e+00 -5.9638792397075484e+00 1.5086191778669615e+00 0 0 0
61 61 8 0.0000000000000000e+00 -8.2592709733544236e+00 -2.0127346798271795e+00 1.3703592326529233e+00 0 0 0
157 157 8 0.0000000000000000e+00 -4.1629632451834446e+00 -9.9774276558990387e+00 1.4149432653695833e+00 0 0 0
955 787 9 4.1699999999999998e-01 -1.1253236612781249e+01 -1.2666463698832686e+00 -1.1910732641131574e+00 1 0 0
734 714 10 -8.3399999999999996e-01 -1.0820311190845478e+01 -3.9016999152779555e+00 -1.9855544352165779e+00 1 0 0
1016 808 10 -8.3399999999999996e-01 -1.1189486336181586e+01 -6.0625559282493873e+00 -3.5271213383250277e-01 1 0 0
179 179 8 0.0000000000000000e+00 -1.8900968594821510e+00 -5.9081330178135349e+00 -5.2607096437538736e-01 0 0 0
160 160 8 0.0000000000000000e+00 -1.9113781354335142e+00 -7.9379145786054863e+00 1.4295865030387827e+00 0 0 0
205 205 8 0.0000000000000000e+00 -4.1916656489507638e+00 -1.9064322473991986e+00 1.3836364842508786e+00 0 0 0
989 799 10 -8.3399999999999996e-01 -1.0815123161610382e+01 -9.9928368256532956e+00 -7.1382540535939398e-01 1 0 1
950 786 10 -8.3399999999999996e-01 -1.1209065627333702e+01 -3.8288242109830577e+00 1.3914180876391331e+00 1 0 0
1018 808 9 4.1699999999999998e-01 -1.0819786248721622e+01 -6.7844961179195211e+00 1.5545728925145141e-01 1 0 0
952 786 9 4.1699999999999998e-01 -1.1150067376298651e+01 -4.5737344217224392e+00 7.9330441628795434e-01 1 0 0
990 799 9 4.1699999999999998e-01 -1.1545123526932754e+01 -9.7497044172807339e+00 -1.4452927581391961e-01 1 0 1
11 11 8 0.0000000000000000e+00 -6.1654182465655669e+00 -9.9754920385548331e+00 -5.5979552215781858e-01 0 0 0
35 35 8 0.0000000000000000e+00 -6.0953581708662377e+00 -5.9565253123085027e+00 -6.3697888499697264e-01 0 0 0
59 59 8 0.0000000000000000e+00 -6.1883667703263416e+00 -1.9145423944238189e+00 -6.6472820000790023e-01 0 0 0
154 154 8 0.0000000000000000e+00 -4.0609965186605148e+00 -7.8562576144007457e+00 -6.0046528026402157e-01 0 0 0
178 178 8 0.0000000000000000e+00 -4.0456190996534751e+00 -3.9471158248929630e+00 -6.7658291735019382e-01 0 0 0
155 155 8 0.0000000000000000e+00 -1.8852797852604724e+00 -9.9665538720033613e+00 -5.9221786757373174e-01 0 0 0
16 16 8 0.0000000000000000e+00 -6.1502036198113608e+00 -7.8916875645534699e+00 1.3472455887134629e+00 0 0 0
40 40 8 0.0000000000000000e+00 -6.0727057309747954e+00 -4.0367707991195036e+00 1.4295277665069381e+00 0 0 0
203 203 8 0.0000000000000000e+00 -1.9920586535678417e+00 -1.8977255727348012e+00 -7.1481588797230700e-01 0 0 0
735 714 9 4.1699999999999998e-01 -1.0726400188163465e+01 -3.2493733002729996e+00 -1.2914630844560246e+00 1 0 0
991 799 9 4.1699999999999998e-01 -1.0035021709887854e+01 -9.7044482887552750e+00 -2.4013166113187268e-01 1 0 1
951 786 9 4.1699999999999998e-01 -1.0851189992785310e+01 -3.0931883124047399e+00 8.9455109457257898e-01 1 0 0
1017 808 9 4.1699999999999998e-01 -1.1852734608635526e+01 -6.4740094318680752e+00 -9.0671547281996290e-01 1 0 0
274 274 8 0.0000000000000000e+00 -4.0698698026908531e+00 -1.1968508176199945e+01 -5.5176754372718761e-01 0 1 0
954 787 9 4.1699999999999998e-01 -1.1100371000240957e+01 -1.0104188656721149e+00 2.9303416765114321e-01 1 0 0
280 280 8 0.0000000000000000e+00 -2.0837528604788087e+00 -1.1957397271915932e+01 1.3379689764978924e+00 0 1 0
666 691 9 4.1699999999999998e-01 -1.0211683108587065e+01 -7.3604134945850186e+00 1.9625171976123124e+00 1 -1 0
624 676 9 4.1699999999999998e-01 -1.1190762933093980e+01 -1.1140113168642833e+01 -2.2663971228723572e+00 1 1 -2
856 754 9 4.1699999999999998e-01 -1.1714960350534454e+01 -8.0963846398938379e+00 -2.3969821810832990e+00 1 1 1
14 14 8 0.0000000000000000e+00 -8.3620355158840809e+00 -7.9971443149498835e+00 3.5316757254726188e+00 0 0 0
17 17 8 0.0000000000000000e+00 -8.2214446935564425e+00 -1.0093501476506884e+01 5.3985058725646873e+00 0 0 0
159 159 8 0.0000000000000000e+00 -1.9967440742675091e+00 -9.9772543655612509e+00 3.5277949225893419e+00 0 0 0
38 38 8 0.0000000000000000e+00 -8.2770037441026894e+00 -3.8874689618246503e+00 3.4906749896072728e+00 0 0 0
41 41 8 0.0000000000000000e+00 -8.2827886446652492e+00 -5.9074371235392533e+00 5.5769837238056787e+00 0 0 0
380 595 9 4.1699999999999998e-01 -1.0863717829778169e+01 -7.7236676691322126e+00 6.0515217029429103e+00 0 0 0
185 185 8 0.0000000000000000e+00 -4.1044508067365157e+00 -5.9624936324724995e+00 5.5375443521004080e+00 0 0 0
65 65 8 0.0000000000000000e+00 -8.1957832451508530e+00 -1.9360060353551702e+00 5.5569620831927331e+00 0 0 0
182 182 8 0.0000000000000000e+00 -4.1676217372368605e+00 -3.9760285171326508e+00 3.5303140798001351e+00 0 0 0
920 776 10 -8.3399999999999996e-01 -1.0961734055027943e+01 -3.6098995924940791e+00 5.4402885356624999e+00 1 -1 0
921 776 9 4.1699999999999998e-01 -1.0690831211894832e+01 -2.9927409234072488e+00 4.7607011983496648e+00 1 -1 0
188 188 8 0.0000000000000000e+00 -1.9488698404773999e+00 -3.9752949227584420e+00 5.5299529215389214e+00 0 0 0
183 183 8 0.0000000000000000e+00 -1.9265613038697360e+00 -5.8941123208712787e+00 3.4740682306578989e+00 0 0 0
209 209 8 0.0000000000000000e+00 -4.0654060713386109e+00 -1.7952524481277496e+00 5.5059653748771886e+00 0 0 0
347 584 9 4.1699999999999998e-01 -1.0891560582253510e+01 -1.0888924725647238e+01 3.8731046886772518e+00 0 0 0
284 284 8 0.0000000000000000e+00 -1.9148630110223870e+00 -1.1997793755166962e+01 5.3767557373886987e+00 0 1 0
377 594 9 4.1699999999999998e-01 -1.0549250455623778e+01 -1.1265811209279732e+00 2.5052912222538755e+00 0 0 0
376 594 10 -8.3399999999999996e-01 -1.0687550129463682e+01 -1.7745354235666539e+00 3.1960448625856834e+00 0 0 0
158 158 8 0.0000000000000000e+00 -3.9875908230126509e+00 -8.0307408777825025e+00 3.4708241598171483e+00 0 0 0
346 584 10 -8.3399999999999996e-01 -1.1187512337172874e+01 -1.0259616715944043e+01 3.2154604718157760e+00 0 0 0
164 164 8 0.0000000000000000e+00 -1.7827498999124209e+00 -7.9822766962147647e+00 5.5440578975025971e+00 0 0 0
161 161 8 0.0000000000000000e+00 -4.0655793566946468e+00 -1.0021902100048917e+01 5.4713124959217581e+00 0 0 0
207 207 8 0.0000000000000000e+00 -2.1533867048965050e+00 -1.8431606601539130e+00 3.5650667895543133e+00 0 0 0
278 278 8 0.0000000000000000e+00 -4.0836199575169942e+00 -1.2032525358424223e+01 3.3784521209182987e+00 0 1 0
348 584 9 4.1699999999999998e-01 -1.2011662571333220e+01 -9.9189514689320415e+00 3.5630745626712113e+00 0 0 0
381 595 9 4.1699999999999998e-01 -1.0542967211009161e+01 -8.1615180768314257e+00 4.6383686621680020e+00 0 0 0
44 44 8 0.0000000000000000e+00 -6.1505857960070900e+00 -3.8868500308429468e+00 5.5569380929893732e+00 0 0 0
140 140 8 0.0000000000000000e+00 -6.2296245650937268e+00 -1.2081209014648902e+01 5.5100875522387653e+00 0 1 0
63 63 8 0.0000000000000000e+00 -6.1184287922566245e+00 -1.9292084088784343e+00 3.4908958234040437e+00 0 0 0
1047 818 9 4.1699999999999998e-01 -1.0905807152192430e+01 -6.5713569058987531e-01 4.5431195164039444e+00 1 0 -1
409 605 10 -8.3399999999999996e-01 -1.0709169409112485e+01 -6.1384175568545620e+00 3.5146829080491617e+00 0 0 0
15 15 8 0.0000000000000000e+00 -6.1965862571973487e+00 -9.9374027134486145e+00 3.4327183956058285e+00 0 0 0
379 595 10 -8.3399999999999996e-01 -1.0905597450245862e+01 -8.4790898223137265e+00 5.4652662526263249e+00 0 0 0
20 20 8 0.0000000000000000e+00 -6.2111505434746332e+00 -8.0497443296753115e+00 5.4637718927070686e+00 0 0 0
39 39 8 0.0000000000000000e+00 -6.2630921850801107e+00 -6.0074681126558094e+00 3.4026882270957586e+00 0 0 0
922 776 9 4.1699999999999998e-01 -1.1065721090136394e+01 -3.0721128018331694e+00 6.2251989003312502e+00 1 -1 0
385 597 10 -8.3399999999999996e-01 -1.0995190227809102e+01 -6.0779682886760691e+00 6.9792648141902625e+00 0 0 0
1048 818 9 4.1699999999999998e-01 -1.0446783491156323e+01 -2.9875417514179858e-01 5.9404224467620459e+00 1 0 -1
134 134 8 0.0000000000000000e+00 -8.3583944760439266e+00 -1.2058915876777442e+01 3.4476559030357610e+00 0 1 0
411 605 9 4.1699999999999998e-01 -1.0326393746257025e+01 -5.5194594152981020e+00 4.1363627909545180e+00 0 0 0
378 594 9 4.1699999999999998e-01 -1.0732750228848154e+01 -2.6116760043101603e+00 2.7342387897434701e+00 0 0 0
1036 814 9 4.1699999999999998e-01 -1.0858233798434636e+01 -9.7040877783557811e+00 6.8788763690378367e+00 1 0 -1
410 605 9 4.1699999999999998e-01 -1.1392510934299406e+01 -5.6385403321263201e+00 3.0682760431691207e+00 0 0 0
1035 814 9 4.1699999999999998e-01 -1.1354975417657126e+01 -1.1053761576678340e+01 6.4064107800206394e+00 1 0 -1
1034 814 10 -8.3399999999999996e-01 -1.1179536577955652e+01 -1.0546887216651385e+01 7.1991349706704248e+00 1 0 -1
319 289 1 8.9999999999999997e-02 -6.8965119196100488e-02 -2.1272490307567562e+00 5.2534640224536986e+00 0 0 0
386 597 9 4.1699999999999998e-01 -1.0767257252892634e+01 -5.3372423775661835e+00 6.4175854962372973e+00 0 0 0
387 597 9 4.1699999999999998e-01 -1.1892448864806910e+01 -5.8988699552814543e+00 7.2602679991282102e+00 0 0 0
21 21 8 0.0000000000000000e+00 -8.2659126407652810e+00 -1.0136133311141934e+01 9.4941747694902290e+00 0 0 0
22 22 8 0.0000000000000000e+00 -8.3363622341923644e+00 -8.0936408085187637e+00 1.1621166904968270e+01 0 0 0
45 45 8 0.0000000000000000e+00 -8.2154304439312060e+00 -6.0617136800013141e+00 9.6460241440635492e+00 0 0 0
46 46 8 0.0000000000000000e+00 -8.3833709547396218e+00 -3.8884875245404462e+00 1.1593639145706405e+01 0 0 0
69 69 8 0.0000000000000000e+00 -8.3510007395309316e+00 -1.7751477303223435e+00 9.4630356336231358e+00 0 0 0
968 792 10 -8.3399999999999996e-01 -1.0813249306470929e+01 -4.0244315150674552e+00 9.2245287622994603e+00 1 0 0
19 19 8 0.0000000000000000e+00 -6.0996172399146431e+00 -9.9926523474490114e+00 7.5199960695953934e+00 0 0 0
689 699 10 -8.3399999999999996e-01 -1.1973547695886072e+01 -6.1001650609361224e+00 1.0940142671548681e+01 1 1 -1
1031 813 10 -8.3399999999999996e-01 -1.0795075296795389e+01 -2.1209815032490145e+00 1.1397468841096693e+01 1 0 0
67 67 8 0.0000000000000000e+00 -6.1435541298307541e+00 -1.8272569832934398e+00 7.5383512343982275e+00 0 0 0
163 163 8 0.0000000000000000e+00 -2.1002912088059897e+00 -9.9773138046837744e+00 7.4610454918188616e+00 0 0 0
168 168 8 0.0000000000000000e+00 -1.9954850993212165e+00 -8.0008253528491302e+00 9.5342826906278155e+00 0 0 0
838 748 9 4.1699999999999998e-01 -1.0343023343112973e+01 -2.5346101808142301e+00 7.9737008094186166e+00 1 0 1
363 589 9 4.1699999999999998e-01 -1.1302081688817573e+01 -9.3042758399588354e+00 1.0230973910665234e+01 0 0 -1
1144 850 9 4.1699999999999998e-01 -1.6793414062661505e-01 -3.1144847545850460e+00 7.9993036167112379e+00 0 1 0
969 792 9 4.1699999999999998e-01 -1.0564215877616956e+01 -4.8694357753076609e+00 9.5987776468832742e+00 1 0 0
18 18 8 0.0000000000000000e+00 -8.3775951312381238e+00 -8.0479011104839770e+00 7.6433828179527374e+00 0 0 0
837 748 9 4.1699999999999998e-01 -1.0870619331117593e+01 -1.1158543802388259e+00 7.9544713065861394e+00 1 0 1
144 144 8 0.0000000000000000e+00 -6.0864114321467087e+00 -1.2120445096450300e+01 9.4477501282324958e+00 0 1 0
167 167 8 0.0000000000000000e+00 -2.1225436459931721e+00 -9.9958426076228637e+00 1.1665090606428215e+01 0 0 0
192 192 8 0.0000000000000000e+00 -2.1115089103307909e+00 -3.8204745077309870e+00 9.5286733307599008e+00 0 0 0
191 191 8 0.0000000000000000e+00 -2.0320505225550782e+00 -5.9338588463750455e+00 1.1515033313165912e+01 0 0 0
356 587 9 4.1699999999999998e-01 -1.0188833910068828e+01 -1.1929945551872953e+01 8.7358561502532126e+00 0 0 0
215 215 8 0.0000000000000000e+00 -2.1182165563649740e+00 -1.8217727194553159e+00 1.1577213419910279e+01 0 0 0
186 186 8 0.0000000000000000e+00 -4.1971927502820368e+00 -3.8669644413641766e+00 7.5511983278721360e+00 0 0 0
335 580 9 4.1699999999999998e-01 -1.1277037070586861e+01 -7.0758713874042529e+00 9.7659270906536193e+00 0 0 -1
23 23 8 0.0000000000000000e+00 -6.1676232972049299e+00 -9.9717149695278984e+00 1.1568751035933222e+01 0 0 0
24 24 8 0.0000000000000000e+00 -6.2133529599587511e+00 -8.1174952336274444e+00 9.6009740925377081e+00 0 0 0
47 47 8 0.0000000000000000e+00 -6.2372680278672803e+00 -5.9817835855291159e+00 1.1648621517888671e+01 0 0 0
48 48 8 0.0000000000000000e+00 -6.2108049962339491e+00 -3.8231806947515388e+00 9.5675337552081530e+00 0 0 0
71 71 8 0.0000000000000000e+00 -6.2312109678513270e+00 -1.8337587986448263e+00 1.1522491490801606e+01 0 0 0
288 288 8 0.0000000000000000e+00 -2.1066272388986782e+00 -1.2143729529983744e+01 9.6291459968738629e+00 0 1 0
165 165 8 0.0000000000000000e+00 -4.0786979925815441e+00 -9.9538994911576033e+00 9.6199587051590179e+00 0 0 0
166 166 8 0.0000000000000000e+00 -4.2011622028984261e+00 -7.9498392502089281e+00 1.1592953156149790e+01 0 0 0
189 189 8 0.0000000000000000e+00 -4.3033573865500783e+00 -5.9592825022334779e+00 9.6673747857328181e+00 0 0 0
190 190 8 0.0000000000000000e+00 -4.0694169613008064e+00 -3.9152133189931941e+00 1.1656956248930008e+01 0 0 0
213 213 8 0.0000000000000000e+00 -4.1791666688887279e+00 -1.8373027742504977e+00 9.4782419666800628e+00 0 0 0
187 187 8 0.0000000000000000e+00 -2.0967115300854271e+00 -5.9402157141254772e+00 7.7231971795993495e+00 0 0 0
42 42 8 0.0000000000000000e+00 -8.3322931709543990e+00 -3.8822554735837311e+00 7.6707034136225865e+00 0 0 0
336 580 9 4.1699999999999998e-01 -1.0568048925365561e+01 -7.3672393677171941e+00 8.4605397451851232e+00 0 0 -1
211 211 8 0.0000000000000000e+00 -1.9851195499596894e+00 -1.7641757186762348e+00 7.4483069074370789e+00 0 0 0
334 580 10 -8.3399999999999996e-01 -1.0917587904859525e+01 -7.7927312384011946e+00 9.2434134273050610e+00 0 0 -1
142 142 8 0.0000000000000000e+00 -8.2248824328192054e+00 -1.2011080746254418e+01 1.1599807977428117e+01 0 1 0
43 43 8 0.0000000000000000e+00 -6.1440484342569253e+00 -5.9533587440267501e+00 7.5293362900956353e+00 0 0 0
162 162 8 0.0000000000000000e+00 -4.0759057807861296e+00 -7.9056135453817920e+00 7.5629758090113590e+00 0 0 0
362 589 9 4.1699999999999998e-01 -1.0979043057237392e+01 -1.0760799088756269e+01 1.0487453226982073e+01 0 0 -1
1032 813 9 4.1699999999999998e-01 -1.0613611674926553e+01 -2.5637742089416040e+00 1.0568543317586435e+01 1 0 0
970 792 9 4.1699999999999998e-01 -1.1749192753579461e+01 -4.1088917246546632e+00 9.0429015628326361e+00 1 0 0
361 589 10 -8.3399999999999996e-01 -1.1249585939164422e+01 -9.9562523213589103e+00 1.0929746290457594e+01 0 0 -1
282 282 8 0.0000000000000000e+00 -4.0074264132671615e+00 -1.2093467233203993e+01 7.4957155109536977e+00 0 1 0
836 748 10 -8.3399999999999996e-01 -1.0821817971943386e+01 -1.9124747187966751e+00 7.4261470525710003e+00 1 0 1
1033 813 9 4.1699999999999998e-01 -1.0798095997066989e+01 -1.1897197513187514e+00 1.1176437693658542e+01 1 0 0
286 286 8 0.0000000000000000e+00 -4.0701481594464273e+00 -1.1996505126168575e+01 1.1571622293110078e+01 0 1 0
138 138 8 0.0000000000000000e+00 -8.2751205117559614e+00 -1.2131787876852449e+01 7.5034519528802228e+00 0 1 0
660 689 9 4.1699999999999998e-01 -1.8161904806827778e-02 -9.1579029872818367e+00 8.8665292517573526e+00 0 0 0
73 73 8 0.0000000000000000e+00 -8.3437638710113369e+00 2.2485210012506851e+00 -1.0747093674860697e+01 0 0 0
74 74 8 0.0000000000000000e+00 -8.2794601900590870e+00 4.2206324207996495e+00 -8.6607028943304591e+00 0 0 0
97 97 8 0.0000000000000000e+00 -8.3058982248579181e+00 6.3072751031985064e+00 -1.0729276912521364e+01 0 0 0
98 98 8 0.0000000000000000e+00 -8.3630974998562486e+00 8.2617100580156588e+00 -8.6799777476955349e+00 0 0 0
121 121 8 0.0000000000000000e+00 -8.2918696275947052e+00 1.0319636967349489e+01 -1.0596809868577909e+01 0 0 0
455 620 9 4.1699999999999998e-01 -1.0732880038880051e+01 1.1460847785674851e+01 -1.1518231163056962e+01 0 0 0
1122 843 9 4.1699999999999998e-01 -1.0388579257950761e+01 2.9585732699773910e+00 -7.8952230634916187e+00 1 -1 1
1121 843 10 -8.3399999999999996e-01 -1.0651189541395409e+01 2.3808380568183427e+00 -8.6117216470866023e+00 1 -1 1
194 194 8 0.0000000000000000e+00 -4.1923939828900743e+00 2.0560219149821712e-01 -8.7569301131288153e+00 0 0 0
1140 849 9 4.1699999999999998e-01 -1.0746664189154094e+01 8.7574280972096865e+00 -1.1513288139841741e+01 1 0 1