LAMMPS data file via write_data, version 16 Mar 2018, timestep = 500000

714 atoms
12 atom types
403 bonds
8 bond types
260 angles
13 angle types
132 dihedrals
18 dihedral types

-1.9136423946025680e+01 1.9136423946025680e+01 xlo xhi
-7.1761591252809538e+00 7.1761591252809538e+00 ylo yhi
-7.1761591252809538e+00 7.1761591252809538e+00 zlo zhi

Masses

1 1.008
2 1.008
3 12.011
4 12.011
5 15.9994
6 15.9994
7 32.06
8 196.966
9 1.008
10 15.9994
11 35.45
12 22.9898

Pair Coeffs # lj/charmmfsw/coul/long

1 0.028 2.38761 0.028 2.38761
2 0.024 2.38761 0.024 2.38761
3 0.056 3.58141 0.01 3.38542
4 0.078 3.63487 0.01 3.38542
5 0.1 2.93997 0.1 2.93997
6 0.12 3.02906 0.12 3.02906
7 0.47 3.74177 0.47 3.74177
8 5.29 2.62904 5.29 2.62904
9 0.046 0.400014 0.046 0.400014
10 0.1521 3.15057 0.1521 3.15057
11 0.15 4.04468 0.15 4.04468
12 0.0469 2.42993 0.0469 2.42993

Bond Coeffs # harmonic/omp

1 222.5 1.53
2 222.5 1.528
3 309 1.111
4 340 1.43
5 322 1.111
6 450 0.9572
7 540 1.448
8 250 1.575

Angle Coeffs # charmm/omp

1 58.35 113.6 11.16 2.561
2 58 115 8 2.561
3 26.5 110.1 22.53 2.179
4 75.7 110.1 0 0
5 34.6 110.1 22.53 2.179
6 15 109 27 1.9
7 34.6 110.1 22.53 2.179
8 35.5 109 5.4 1.802
9 60 109.5 0 0
10 35.5 108.4 5.4 1.802
11 55 104.52 0 0
12 130 109.47 35 2.45
13 85 98 0 0

Dihedral Coeffs # charmmfsw

1 0.101 2 0 1
2 0.142 3 180 0
3 0.074 4 0 0
4 0.097 5 0 0
5 0.162 2 0 1
6 0.047 3 180 0
7 0.105 4 0 0
8 0.177 5 0 0
9 0.19 3 0 1
10 0 3 0 1
11 0.16 3 0 1
12 0 3 0 1
13 0 3 0 1
14 0.19 3 0 1
15 0.19 3 0 1
16 0.19 3 0 1
17 0.16 3 0 1
18 0 3 0 1

Atoms # full

315 307 10 -8.3399999999999996e-01 -1.6810827051217444e+01 -5.2121670642182556e+00 -1.6446743260805797e-02 1 4 1
676 428 10 -8.3399999999999996e-01 -1.8573096214037740e+01 -4.5085753416452459e+00 -2.7453998950365479e+00 1 2 1
30 30 8 0.0000000000000000e+00 -1.4009411316571192e+01 -2.8789868125688431e+00 -6.2559052901971324e+00 0 0 1
22 22 8 0.0000000000000000e+00 -1.3573073495954347e+01 -1.1981935432791853e+00 -2.4299169596598276e+00 0 0 0
674 427 9 4.1699999999999998e-01 -1.6124964045083580e+01 -3.3436047009541578e+00 -4.3535145518994680e+00 1 3 -1
601 403 10 -8.3399999999999996e-01 -1.6582727394556887e+01 -5.4718453167461445e-01 -6.1313806132969004e+00 1 2 -1
2 2 8 0.0000000000000000e+00 -1.3914652453929079e+01 -6.3022168204391722e+00 -1.5316649356794154e+00 0 0 0
561 389 10 -8.3399999999999996e-01 -1.6152493616471357e+01 -5.2061981168805822e+00 -4.8647305958505083e+00 1 6 -4
677 428 9 4.1699999999999998e-01 -1.8694998241448872e+01 -4.9304551517837378e+00 -3.5959227708089698e+00 1 2 1
602 403 9 4.1699999999999998e-01 -1.6167478019348280e+01 -1.1143951346533210e+00 -5.4817099714679216e+00 1 2 -1
390 332 10 -8.3399999999999996e-01 -1.6682948209851343e+01 -6.6505480410879789e+00 -2.6666800153849333e+00 1 -2 -1
1 1 8 0.0000000000000000e+00 -1.3707177245140896e+01 -6.6025176166826842e+00 -4.4708452069014326e+00 0 0 0
17 17 8 0.0000000000000000e+00 -1.3742263932860872e+01 -4.0372772511712034e+00 -3.2753947963110308e+00 0 0 0
322 309 9 4.1699999999999998e-01 -1.7745918712148800e+01 -2.3591685709460233e+00 -4.8469872727983532e+00 1 2 10
675 427 9 4.1699999999999998e-01 -1.6008662043765234e+01 -2.3391602030784471e+00 -3.2268112692628161e+00 1 3 -1
418 341 9 4.1699999999999998e-01 -1.6636691308955378e+01 -2.0425420384174493e+00 -5.4907101285716065e-01 1 2 -1
21 21 8 0.0000000000000000e+00 -1.4231093976488385e+01 -3.2832581460067685e+00 -5.9633062902326694e-01 0 0 0
563 389 9 4.1699999999999998e-01 -1.5819896550972951e+01 -5.7109031570398674e+00 -4.1225150880507231e+00 1 6 -4
33 33 8 0.0000000000000000e+00 -1.1763767063189647e+01 -1.8708432487083209e+00 -4.5872076968725928e+00 0 0 0
457 354 9 4.1699999999999998e-01 -1.6601403900114121e+01 -2.9026843796015495e-01 -2.0368760630656579e+00 1 0 -1
673 427 10 -8.3399999999999996e-01 -1.5968705813643142e+01 -2.4152960105583401e+00 -4.1801415820679306e+00 1 3 -1
419 341 9 4.1699999999999998e-01 -1.7768385681930724e+01 -1.8869446380462154e+00 -1.5425258372402579e+00 1 2 -1
562 389 9 4.1699999999999998e-01 -1.7053653380927013e+01 -5.5090043343986546e+00 -4.9763160850115167e+00 1 6 -4
31 31 8 0.0000000000000000e+00 -1.1798352892933716e+01 -4.6075737140624033e+00 -5.6766757674798782e+00 0 0 1
182 262 9 4.1699999999999998e-01 -1.6211776393568385e+01 -3.5469287216576824e+00 -6.5911039893318222e+00 0 3 1
417 341 10 -8.3399999999999996e-01 -1.6846069113614163e+01 -2.1348695460076064e+00 -1.4785162280122404e+00 1 2 -1
391 332 9 4.1699999999999998e-01 -1.6967057847299998e+01 -5.8370871409623781e+00 -2.2497928302536021e+00 1 -2 -1
23 23 8 0.0000000000000000e+00 -1.1728970297277703e+01 -5.3809278293770300e+00 -2.9555732446105130e-02 0 0 0
365 323 9 4.1699999999999998e-01 -1.5920437835432425e+01 -6.8706893936370719e+00 -5.7403774757348218e+00 1 6 -5
335 313 9 4.1699999999999998e-01 -1.8849129972249223e+01 -4.3919968516633991e+00 -5.5814319235765204e+00 1 7 0
333 313 10 -8.3399999999999996e-01 -1.8832325846473505e+01 -5.3449218362768489e+00 -5.4926431807528111e+00 1 7 0
321 309 10 -8.3399999999999996e-01 -1.8662010188726267e+01 -2.4836351004507637e+00 -5.0950121304415079e+00 1 2 10
581 396 9 4.1699999999999998e-01 -1.8393729817981345e+01 -7.0517874298369172e+00 -2.4309926095875944e+00 1 -2 -1
15 15 8 0.0000000000000000e+00 -1.1999739549785701e+01 -7.1599273303239359e+00 -6.7584255729781075e+00 0 0 1
353 319 9 4.1699999999999998e-01 -1.7937534500475461e+01 -1.0113373787824937e+00 -7.1274459932691556e+00 1 3 4
334 313 9 4.1699999999999998e-01 -1.8872384958647899e+01 -5.6704790952016371e+00 -6.3918870744609153e+00 1 7 0
293 299 9 4.1699999999999998e-01 -1.9115351871607984e+01 -4.8640004583342505e-01 -2.4501857778821043e+00 1 -2 -10
323 309 9 4.1699999999999998e-01 -1.9104308200893993e+01 -1.6938167176087235e+00 -4.7838992395342084e+00 1 2 10
379 328 9 4.1699999999999998e-01 -1.5557392148978430e+01 -4.2290990572185034e+00 2.9200058340159454e+00 1 2 1
460 355 9 4.1699999999999998e-01 -1.7896095444849191e+01 -3.8702442365339413e+00 4.6371738728073053e+00 1 -1 5
226 277 9 4.1699999999999998e-01 -1.4996341789446587e+01 -5.0175781975953848e+00 9.5255833322606231e-01 0 -2 -4
10 10 8 0.0000000000000000e+00 -1.3272340765352038e+01 -6.1722159703313926e+00 4.3695469342749638e+00 0 0 0
635 414 9 4.1699999999999998e-01 -1.5285969236599035e+01 -6.4638867590093074e+00 2.4253080605505115e+00 1 4 -2
596 401 9 4.1699999999999998e-01 -1.7545468089513097e+01 -2.0414643418779193e+00 1.0044559357042988e+00 1 4 3
29 29 8 0.0000000000000000e+00 -1.3624871893299527e+01 -3.1770197059943901e+00 5.2377509646214886e+00 0 0 0
380 328 9 4.1699999999999998e-01 -1.6173745724645638e+01 -3.1160077650454965e+00 3.7403906442863315e+00 1 2 1
225 277 10 -8.3399999999999996e-01 -1.4331764241553145e+01 -5.0498398513337133e+00 1.6406918310324599e+00 0 -2 -4
704 437 9 4.1699999999999998e-01 -1.5785576903845266e+01 -3.7846351740069950e-01 5.1901653760002437e+00 1 4 -2
181 262 9 4.1699999999999998e-01 -1.6263462755353565e+01 -2.5989534948095403e+00 6.5819913471317832e+00 0 3 0
705 437 9 4.1699999999999998e-01 -1.7010903985618633e+01 -7.6963250963414276e-01 4.3917572383533550e+00 1 4 -2
378 328 10 -8.3399999999999996e-01 -1.6295938412844610e+01 -4.0335604171231836e+00 3.4966737606378668e+00 1 2 1
43 43 8 0.0000000000000000e+00 -1.1721157970605509e+01 -1.1784743565465410e+00 4.2761629609265563e+00 0 0 0
227 277 9 4.1699999999999998e-01 -1.3702284016517151e+01 -4.3706536329617629e+00 1.3984263408721951e+00 0 -2 -4
25 25 8 0.0000000000000000e+00 -1.1779278058629892e+01 -2.6856558718137444e+00 7.4007696666893741e-01 0 0 0
45 45 8 0.0000000000000000e+00 -1.4039695168553646e+01 -2.0080146270097008e+00 2.5898270894946709e+00 0 0 0
595 401 10 -8.3399999999999996e-01 -1.6750142469094325e+01 -1.5465683731098105e+00 1.2013492784042652e+00 1 4 3
46 46 8 0.0000000000000000e+00 -1.3577712602355005e+01 -4.6924123612509488e-01 6.6303349836970007e+00 0 0 0
703 437 10 -8.3399999999999996e-01 -1.6205371455667787e+01 -1.1266987167366151e+00 4.7657263715169567e+00 1 4 -2
597 401 9 4.1699999999999998e-01 -1.6929460511887438e+01 -1.1294850169491293e+00 2.0440344883105510e+00 1 4 3
459 355 10 -8.3399999999999996e-01 -1.8641527177224319e+01 -3.8890807490223134e+00 5.2373476541195583e+00 1 -1 5
316 307 9 4.1699999999999998e-01 -1.7222833241241510e+01 -4.3844092609875158e+00 2.3114114002244232e-01 1 4 1
461 355 9 4.1699999999999998e-01 -1.8317359188121145e+01 -3.4724007821019396e+00 6.0357991395030259e+00 1 -1 5
671 426 9 4.1699999999999998e-01 -1.7699283382683824e+01 -5.8061313623792046e+00 5.1400825870683597e+00 1 8 4
351 319 10 -8.3399999999999996e-01 -1.8778711967163570e+01 -8.4717451438125957e-01 6.7986060581548697e+00 1 3 3
672 426 9 4.1699999999999998e-01 -1.6655464109877592e+01 -6.6388497446170414e+00 4.4266986694815920e+00 1 8 4
670 426 10 -8.3399999999999996e-01 -1.7252927141349424e+01 -6.6521920463789694e+00 5.1744230533594990e+00 1 8 4
180 262 10 -8.3399999999999996e-01 -1.6689747854617700e+01 -3.3727749541972956e+00 6.9503840769103995e+00 0 3 0
26 26 8 0.0000000000000000e+00 -1.1759014480673594e+01 -3.8894106155447568e+00 3.2670437784847777e+00 0 0 0
14 14 8 0.0000000000000000e+00 -1.4168947776544970e+01 -5.4330401750914792e+00 7.0093976703833416e+00 0 0 0
252 286 10 -8.3399999999999996e-01 -1.8264375988546202e+01 -3.3257970376053247e-01 3.2620452910986941e+00 0 9 -5
317 307 9 4.1699999999999998e-01 -1.7364818447572446e+01 -5.8842024000231623e+00 3.8066014575779417e-01 1 4 1
254 286 9 4.1699999999999998e-01 -1.8834907236825828e+01 -8.2744573438609037e-01 3.8501214371850332e+00 0 9 -5
634 414 10 -8.3399999999999996e-01 -1.5797839900830983e+01 -7.1580491641648516e+00 2.8404692616531837e+00 1 4 -2
350 318 9 4.1699999999999998e-01 -1.6633171018175677e+01 3.2248793901485842e+00 -9.3218028568940581e-01 1 -4 -5
349 318 9 4.1699999999999998e-01 -1.5177107646175015e+01 3.0586575246940133e+00 -1.3118445355629635e+00 1 -4 -5
3 3 8 0.0000000000000000e+00 -1.1608965123082029e+01 6.2768928814188909e+00 -1.0690074026431731e+00 0 -1 0
50 50 8 0.0000000000000000e+00 -1.3967947159528702e+01 2.7996482684211288e+00 -3.7171105815533201e+00 0 0 0
603 403 9 4.1699999999999998e-01 -1.6747797924024582e+01 2.7188222556290081e-01 -5.6643546646169085e+00 1 2 -1
567 391 10 -8.3399999999999996e-01 -1.6879543188048380e+01 1.6844817430919528e+00 -4.9338407176037977e+00 1 6 -5
697 435 10 -8.3399999999999996e-01 -1.8969510243747536e+01 1.4792271637702703e+00 -2.8406322434659437e+00 1 5 0
699 435 9 4.1699999999999998e-01 -1.8097131290998853e+01 1.3864108253845306e+00 -2.4577851030850204e+00 1 5 0
398 334 9 4.1699999999999998e-01 -1.6817564507161794e+01 5.3502125954395954e+00 -4.0384879189882898e+00 1 -1 -6
397 334 9 4.1699999999999998e-01 -1.6695676903786190e+01 3.9700267451088589e+00 -3.4284669171849256e+00 1 -1 -6
348 318 10 -8.3399999999999996e-01 -1.5972752026331381e+01 3.5331868993251776e+00 -1.5526841807691989e+00 1 -4 -5
415 340 9 4.1699999999999998e-01 -1.9085144345528303e+01 4.1593412109143957e+00 -3.9167680234401372e+00 1 7 0
614 407 9 4.1699999999999998e-01 -1.6111680485147890e+01 4.5698074880116764e+00 -6.5727419508670586e+00 1 9 2
34 34 8 0.0000000000000000e+00 -1.3509842572012786e+01 1.4189991410891496e+00 -1.3132954666263279e+00 0 0 0
56 56 8 0.0000000000000000e+00 -1.1699898257863067e+01 3.5708122370765856e+00 -2.2599916906270821e+00 0 0 0
569 391 9 4.1699999999999998e-01 -1.6713898968547134e+01 2.5611198623158833e+00 -5.2806828180365635e+00 1 6 -5
49 49 8 0.0000000000000000e+00 -1.3998491590225704e+01 3.6542565765008195e-02 -5.0263762981351743e+00 0 0 0
568 391 9 4.1699999999999998e-01 -1.7276674139622884e+01 1.8367554249278639e+00 -4.0763259518457815e+00 1 6 -5
5 5 8 0.0000000000000000e+00 -1.3880495128826329e+01 5.4659554285612906e+00 -2.7012864877926321e+00 0 -1 0
62 62 8 0.0000000000000000e+00 -1.3578656582025939e+01 5.0370002613595544e+00 -5.6348786373116546e+00 0 0 1
51 51 8 0.0000000000000000e+00 -1.1672847426169778e+01 8.7920655078501886e-01 -3.4891112442588144e+00 0 0 0
456 354 10 -8.3399999999999996e-01 -1.6472422451047148e+01 6.5765956507451051e-01 -2.0048116279533446e+00 1 0 -1
516 374 10 -8.3399999999999996e-01 -1.6086586181411285e+01 5.9586807319193182e+00 -3.7504919854101232e-01 1 -4 0
61 61 8 0.0000000000000000e+00 -1.3631912892257274e+01 2.2824810243413034e+00 -6.6562250806620389e+00 0 0 1
517 374 9 4.1699999999999998e-01 -1.5995622435605865e+01 5.0740326359938264e+00 -7.2910454156023241e-01 1 -4 0
396 334 10 -8.3399999999999996e-01 -1.6971660019613278e+01 4.4240266855141845e+00 -4.2246761964073141e+00 1 -1 -6
557 387 9 4.1699999999999998e-01 -1.8369620704172615e+01 4.5548545004634819e+00 -5.4795383618134492e+00 1 0 -4
363 323 10 -8.3399999999999996e-01 -1.6137088647914236e+01 6.7513546339219337e+00 -6.3200272192913349e+00 1 5 -5
458 354 9 4.1699999999999998e-01 -1.6046179587173771e+01 8.1348922599876339e-01 -1.1620388362527394e+00 1 0 -1
392 332 9 4.1699999999999998e-01 -1.6340872901186003e+01 7.1704060971259782e+00 -1.9477443381614157e+00 1 -3 -1
613 407 10 -8.3399999999999996e-01 -1.6269063281859591e+01 3.7020496506783176e+00 -6.9448425229887727e+00 1 9 2
11 11 8 0.0000000000000000e+00 -1.2657428153949537e+01 5.4602453764089791e+00 3.7461368524361993e+00 0 -1 0
346 317 9 4.1699999999999998e-01 -1.6640009376409612e+01 2.4996394725873374e+00 4.4718580901441687e+00 1 6 -4
462 356 10 -8.3399999999999996e-01 -1.8344986725673007e+01 7.0385474189398742e+00 1.5143722849528010e+00 1 2 -2
241 282 9 4.1699999999999998e-01 -1.7423425468391713e+01 5.7862025973598978e+00 5.1911159503768589e+00 0 1 -5
253 286 9 4.1699999999999998e-01 -1.8855003381543053e+01 2.6010048031102184e-01 2.7971567806988569e+00 0 9 -5
347 317 9 4.1699999999999998e-01 -1.6979555630891792e+01 1.2928725914916561e+00 3.6231430451835802e+00 1 6 -4
636 414 9 4.1699999999999998e-01 -1.5179185894480611e+01 6.4719352368013796e+00 2.9487876408683675e+00 1 3 -2
42 42 8 0.0000000000000000e+00 -1.4026290738518645e+01 6.2485190769185806e-01 3.8950493027867266e+00 0 0 0
463 356 9 4.1699999999999998e-01 -1.7666935465497296e+01 6.8789002648654884e+00 2.1708714232183111e+00 1 2 -2
659 422 9 4.1699999999999998e-01 -1.7428327035236727e+01 2.5119388177940589e+00 1.5350663092870984e+00 1 1 2
240 282 10 -8.3399999999999996e-01 -1.7571902012741813e+01 4.8421551843398563e+00 5.2455313748058376e+00 0 1 -5
9 9 8 0.0000000000000000e+00 -1.5039484242229987e+01 4.3961908369149914e+00 2.4537447403622568e+00 0 -1 0
660 422 9 4.1699999999999998e-01 -1.8411525501323570e+01 2.6014437767071481e+00 3.8737086597507575e-01 1 1 2
54 54 8 0.0000000000000000e+00 -1.2505586700243228e+01 2.9089546386319518e+00 2.8644615683985402e+00 0 0 0
57 57 8 0.0000000000000000e+00 -1.4568749083985679e+01 1.7357646691729582e+00 1.2801792675740122e+00 0 0 0
197 267 9 4.1699999999999998e-01 -1.6167988353116332e+01 4.1414027423322158e-01 6.9917672546725340e+00 0 3 -4
242 282 9 4.1699999999999998e-01 -1.8065529405470599e+01 4.6307864756676844e+00 4.4531380971939427e+00 0 1 -5
59 59 8 0.0000000000000000e+00 -1.1949306110245113e+01 1.7720128979537282e+00 5.4626274595820012e+00 0 0 0
58 58 8 0.0000000000000000e+00 -1.4174341848652368e+01 3.3264849820126772e+00 5.0311526229496479e+00 0 0 0
345 317 10 -8.3399999999999996e-01 -1.6777668605458313e+01 2.2267178196493820e+00 3.5647773062229300e+00 1 6 -4
195 267 10 -8.3399999999999996e-01 -1.5939371495406551e+01 9.8939050500749415e-01 6.2616622275276193e+00 0 3 -4
64 64 8 0.0000000000000000e+00 -1.1990014178553396e+01 4.4981807744363191e+00 6.5335890868966962e+00 0 0 0
13 13 8 0.0000000000000000e+00 -1.4304243509682834e+01 6.0849562571916040e+00 5.9900527280498226e+00 0 -1 0
658 422 10 -8.3399999999999996e-01 -1.7486242987003934e+01 2.7191773457252579e+00 6.0236604462860677e-01 1 1 2
6 6 8 0.0000000000000000e+00 -1.3505874092638837e+01 6.6607939795894620e+00 1.2054935768703656e+00 0 -1 0
550 385 9 4.1699999999999998e-01 -1.8918717135698817e+01 9.5736935232234144e-01 6.3311647288205508e+00 1 1 -1
196 267 9 4.1699999999999998e-01 -1.5916992208390019e+01 1.8662357475625149e+00 6.6449029233788055e+00 0 3 -4
464 356 9 4.1699999999999998e-01 -1.8010322606044134e+01 6.6255011551678757e+00 7.1836691206887748e-01 1 2 -2
615 407 9 4.1699999999999998e-01 -1.6749112988286267e+01 3.8719423312085919e+00 6.5969693409867025e+00 1 9 1
551 385 9 4.1699999999999998e-01 -1.8945541255162670e+01 2.4580216099982648e+00 6.5292012409263318e+00 1 1 -1
518 374 9 4.1699999999999998e-01 -1.5705605675389647e+01 5.9066997443712355e+00 5.0152576768397639e-01 1 -4 0
668 425 9 4.1699999999999998e-01 -1.8730579798431428e+01 6.9332994238171803e+00 6.2456310175207239e+00 1 1 5
549 385 10 -8.3399999999999996e-01 -1.9104817873981755e+01 1.7779076095295681e+00 5.8747489927611838e+00 1 1 -1
364 323 9 4.1699999999999998e-01 -1.6237213262625332e+01 7.1519422943701310e+00 7.1687307100834703e+00 1 5 -6
41 41 8 0.0000000000000000e+00 -1.2190580330018362e+01 2.8768661969412967e-03 1.6530045840437262e+00 0 0 0
53 53 8 0.0000000000000000e+00 -1.3447184856632559e+01 4.2286870601938569e+00 3.8724546168005941e-03 0 0 0
20 20 8 0.0000000000000000e+00 -9.4695509515062586e+00 -3.5975877347506620e+00 -3.9406984325237007e+00 0 0 0
84 84 8 0.0000000000000000e+00 -5.0162336129642169e+00 -4.2638888500640348e+00 -2.0541813319043687e+00 0 0 0
88 88 8 0.0000000000000000e+00 -4.9216312889019749e+00 -1.5622112503543690e+00 -1.1562472164160178e+00 0 0 0
24 24 8 0.0000000000000000e+00 -9.1656309406831635e+00 -2.0296423935360428e+00 -4.5032621151035757e-01 0 0 0
19 19 8 0.0000000000000000e+00 -9.1368204931463666e+00 -4.7567359354390240e+00 -1.2618593454138718e+00 0 0 0
81 81 8 0.0000000000000000e+00 -7.1581363763620427e+00 -5.3798327939986379e+00 -3.5418186036634780e+00 0 0 0
66 66 8 0.0000000000000000e+00 -6.8597318858836749e+00 -6.5329075339657248e+00 -8.9779954157820319e-01 0 0 0
35 35 8 0.0000000000000000e+00 -9.4004005753359685e+00 -7.6731035122958979e-01 -2.9859718713582311e+00 0 0 0
47 47 8 0.0000000000000000e+00 -9.2310593830216359e+00 -1.2387748837109109e+00 -5.7575065052765124e+00 0 0 1
37 37 8 0.0000000000000000e+00 -1.1325271219384279e+01 -3.6258973604479766e-01 -9.9393831310120140e-01 0 0 0
82 82 8 0.0000000000000000e+00 -7.3191889556523151e+00 -2.5915181444085356e+00 -2.3574071553858058e+00 0 0 0
78 78 8 0.0000000000000000e+00 -9.5450314536906955e+00 -6.1854034732919869e+00 -5.0941423982488390e+00 0 0 1
94 94 8 0.0000000000000000e+00 -6.7796938292282967e+00 -3.0721440650822074e+00 -5.2486193081591992e+00 0 0 1
68 68 8 0.0000000000000000e+00 -6.0178269864170932e+00 -5.6768262952618116e+00 -6.0781387853179991e+00 0 0 0
111 111 8 0.0000000000000000e+00 -5.0844939647350964e+00 -8.3883555871727222e-01 -6.4505699752155596e+00 0 0 1
97 97 8 0.0000000000000000e+00 -6.8977511964109244e+00 -2.3089244714422613e-01 -4.3131247621622322e+00 0 0 0
4 4 8 0.0000000000000000e+00 -1.1340101360225557e+01 -5.7760953857307804e+00 -3.0312769047579273e+00 0 0 0
93 93 8 0.0000000000000000e+00 -9.0220261854660571e+00 -3.9328093922125862e+00 -6.7517640056168435e+00 0 0 1
486 364 10 -8.3399999999999996e-01 -4.0911735423235536e+00 -2.0393153634091026e+00 -4.2197505326132569e+00 0 4 -3
18 18 8 0.0000000000000000e+00 -1.1275173142946455e+01 -3.1643026697225989e+00 -1.9968325037645098e+00 0 0 0
487 364 9 4.1699999999999998e-01 -4.3912822945106749e+00 -2.1461141997355702e+00 -3.3171096371576727e+00 0 4 -3
488 364 9 4.1699999999999998e-01 -3.8872037303681739e+00 -2.9278407522372829e+00 -4.5115566181910713e+00 0 4 -3
304 303 9 4.1699999999999998e-01 -4.9015348103692578e+00 -4.0829165122520150e+00 -7.0898162245278318e+00 0 2 1
80 80 8 0.0000000000000000e+00 -8.2625963648660150e+00 -6.7710604847136517e+00 6.8439880011622698e+00 0 0 0
103 103 8 0.0000000000000000e+00 -4.7188978296497952e+00 -2.5603811853907343e-01 2.7584387561399923e+00 0 0 0
83 83 8 0.0000000000000000e+00 -4.6190247628238241e+00 -5.7440108692671936e+00 7.4250897026013563e-01 0 0 0
87 87 8 0.0000000000000000e+00 -4.6150022433156490e+00 -2.9378957016783924e+00 1.6458112847809550e+00 0 0 0
86 86 8 0.0000000000000000e+00 -9.5440647684018263e+00 -4.4101964731315801e+00 1.5043700477191269e+00 0 0 0
95 95 8 0.0000000000000000e+00 -6.8518521459011597e+00 -4.4687252739661281e+00 5.7951241311744006e+00 0 0 0
105 105 8 0.0000000000000000e+00 -7.7174780171766706e+00 -6.4621713586837948e-01 3.8717206922111767e+00 0 0 0
89 89 8 0.0000000000000000e+00 -8.8565329982933427e+00 -5.6927561471059240e+00 4.1942544908038704e+00 0 0 0
70 70 8 0.0000000000000000e+00 -7.2236561466586622e+00 -6.1690554812477760e+00 1.9120357273039794e+00 0 0 0
27 27 8 0.0000000000000000e+00 -9.4217690651365444e+00 -2.9051514194924648e+00 4.7798238256361278e+00 0 0 0
96 96 8 0.0000000000000000e+00 -5.3728425238473179e+00 -2.3632870169563200e+00 4.6509527494256666e+00 0 0 0
28 28 8 0.0000000000000000e+00 -9.6591590417737336e+00 -1.6815269131729043e+00 2.2549830507011124e+00 0 0 0
8 8 8 0.0000000000000000e+00 -9.4578774708731199e+00 -7.1131952256938895e+00 3.9066637889368433e-01 0 0 0
101 101 8 0.0000000000000000e+00 -6.9313619352025597e+00 -1.1196645525215183e+00 1.0911303431037540e+00 0 0 0
91 91 8 0.0000000000000000e+00 -5.0653530254592498e+00 -5.0186495333208905e+00 3.4947544330362001e+00 0 0 0
109 109 8 0.0000000000000000e+00 -7.4862947071780441e+00 -1.6718824708851627e+00 6.5034395975707895e+00 0 0 0
90 90 8 0.0000000000000000e+00 -7.3490317987226295e+00 -3.3845592920183547e+00 2.9398914737269273e+00 0 0 0
12 12 8 0.0000000000000000e+00 -1.1129007786474432e+01 -6.6283114257694438e+00 2.7007273527720201e+00 0 0 0
85 85 8 0.0000000000000000e+00 -6.8524442648234976e+00 -3.7918937006304421e+00 1.6530166295457685e-01 0 0 0
16 16 8 0.0000000000000000e+00 -1.1089683702151351e+01 -4.9996641441878964e+00 5.8424720208514955e+00 0 0 0
32 32 8 0.0000000000000000e+00 -1.1408063696137521e+01 -2.1883976405327377e+00 6.9520219800170482e+00 0 0 0
303 303 10 -8.3399999999999996e-01 -4.0041701212213292e+00 -3.8144918691383176e+00 7.0652289513083169e+00 0 2 0
120 120 8 0.0000000000000000e+00 -6.9818817921505092e+00 5.1050885886809292e+00 -1.9377432874162848e+00 0 0 0
100 100 8 0.0000000000000000e+00 -5.0115767999797036e+00 1.9284001626658587e+00 -5.4771490531945179e+00 0 0 0
72 72 8 0.0000000000000000e+00 -4.7210225320682762e+00 6.0794484105110609e+00 -5.2077125286933801e-01 0 -1 0
40 40 8 0.0000000000000000e+00 -9.5874960266650184e+00 1.8152230887687852e+00 -1.8712618920506139e+00 0 0 0
65 65 8 0.0000000000000000e+00 -9.1052538207160421e+00 6.7936578799919616e+00 -2.3826436195808136e+00 0 -1 0
52 52 8 0.0000000000000000e+00 -1.1392339223736778e+01 5.9877168025807910e+00 -4.0661095803344551e+00 0 0 0
126 126 8 0.0000000000000000e+00 -7.3349623428316510e+00 3.6826559816425686e+00 -5.7230008489773692e+00 0 0 1
79 79 8 0.0000000000000000e+00 -7.2887651259701487e+00 6.4458718850181009e+00 -4.7833776157130270e+00 0 -1 1
36 36 8 0.0000000000000000e+00 -9.1361771308379254e+00 1.5481560798759231e+00 -4.7427884139422058e+00 0 0 0
113 113 8 0.0000000000000000e+00 -6.9217685040142518e+00 2.4284849133113791e+00 -3.0808976189765929e+00 0 0 0
77 77 8 0.0000000000000000e+00 -9.7703207762075177e+00 5.2981341884479152e+00 -6.2437781057844237e+00 0 -1 1
69 69 8 0.0000000000000000e+00 -9.4103561801268434e+00 4.5516811379275524e+00 -6.8004740958364296e-01 0 -1 0
110 110 8 0.0000000000000000e+00 -7.4469621944547191e+00 1.0641467434906222e+00 -6.8172973022425110e+00 0 0 1
116 116 8 0.0000000000000000e+00 -5.1048984515865108e+00 4.5339487051074450e+00 -4.1541525451278920e+00 0 0 0
115 115 8 0.0000000000000000e+00 -4.6761298440477814e+00 3.3029085876544717e+00 -1.5178328330519990e+00 0 0 0
114 114 8 0.0000000000000000e+00 -9.1789279592288295e+00 4.2497285099179205e+00 -3.4362799907885244e+00 0 0 0
99 99 8 0.0000000000000000e+00 -4.6297903534211162e+00 6.1285825275490413e-01 -2.8837217649269746e+00 0 0 0
117 117 8 0.0000000000000000e+00 -7.1405844855373717e+00 2.8157763815937189e+00 -2.5269557002768317e-01 0 0 0
128 128 8 0.0000000000000000e+00 -5.8858225642190369e+00 5.9740087306203709e+00 -7.1335497031679296e+00 0 0 1
48 48 8 0.0000000000000000e+00 -1.1371221490469360e+01 4.8454022043944972e-01 -6.2170324344063017e+00 0 0 1
98 98 8 0.0000000000000000e+00 -7.1674235063608824e+00 2.9439598040478654e-01 -1.3884539501769642e+00 0 0 0
67 67 8 0.0000000000000000e+00 -5.0983681712543651e+00 7.1142139383992777e+00 -3.0432878564169550e+00 0 -1 0
63 63 8 0.0000000000000000e+00 -1.1397008301016816e+01 3.3388097057381048e+00 -5.1071050267349518e+00 0 0 1
121 121 8 0.0000000000000000e+00 -8.0006444368729603e+00 2.1803151211074736e+00 4.8536264267917177e+00 0 0 0
71 71 8 0.0000000000000000e+00 -7.1563942735226371e+00 5.5109377481719060e+00 9.2909936194652454e-01 0 -1 0
122 122 8 0.0000000000000000e+00 -8.1411016486170276e+00 4.8044067598421059e+00 5.8259571805096257e+00 0 0 0
123 123 8 0.0000000000000000e+00 -5.8393842853965339e+00 3.2587588914306798e+00 6.2914743907458686e+00 0 0 0
108 108 8 0.0000000000000000e+00 -4.2852031151331378e+00 2.4764933929948398e+00 3.7819566608694344e+00 0 0 0
119 119 8 0.0000000000000000e+00 -4.9405507370027202e+00 3.8855127161492646e+00 1.2958522736475508e+00 0 0 0
73 73 8 0.0000000000000000e+00 -8.8809884245859987e+00 6.0659485203528112e+00 3.0829113469890279e+00 0 -1 0
74 74 8 0.0000000000000000e+00 -1.0536427591832421e+01 6.5796406684157507e+00 5.3373825363924663e+00 0 -1 0
76 76 8 0.0000000000000000e+00 -4.8499879561091053e+00 6.4268997717163536e+00 2.5796968317568529e+00 0 -1 0
102 102 8 0.0000000000000000e+00 -6.6935699294775448e+00 1.5212571016157974e+00 2.3513902243310612e+00 0 0 0
44 44 8 0.0000000000000000e+00 -1.0208412542524824e+01 1.2322462675623262e+00 3.2378559462227781e+00 0 0 0
124 124 8 0.0000000000000000e+00 -4.2036203396885750e+00 5.1017096743120165e+00 4.9374079059409635e+00 0 0 0
39 39 8 0.0000000000000000e+00 -9.0612666986460813e+00 5.8322311138137595e-01 6.7621946294169077e-01 0 0 0
118 118 8 0.0000000000000000e+00 -6.6981962872801297e+00 4.3751131720932595e+00 3.4301771256159448e+00 0 0 0
75 75 8 0.0000000000000000e+00 -6.4980405908253331e+00 7.0057306573765432e+00 4.7261657412711511e+00 0 -1 0
107 107 8 0.0000000000000000e+00 -5.5742909095291262e+00 5.4772321943966618e-01 5.4214450623440760e+00 0 0 0
60 60 8 0.0000000000000000e+00 -1.0302486898247613e+01 3.9452735975833222e+00 4.3711922217086823e+00 0 0 0
55 55 8 0.0000000000000000e+00 -8.8731918142451622e+00 3.2202000914966256e+00 1.9245229217956508e+00 0 0 0
7 7 8 0.0000000000000000e+00 -1.1024255710544226e+01 5.1118165644213294e+00 1.4976547861913467e+00 0 -1 0
38 38 8 0.0000000000000000e+00 -1.1243012907088513e+01 2.5067890747924584e+00 4.5505901415974831e-01 0 0 0
125 125 8 0.0000000000000000e+00 -9.6486750531198400e+00 2.6959356122218709e+00 7.0784888023069685e+00 0 0 0
104 104 8 0.0000000000000000e+00 -4.9464731388025625e+00 9.4018087011167162e-01 2.5267299957661293e-01 0 0 0
106 106 8 0.0000000000000000e+00 -9.6749258223851307e+00 5.1267509151246525e-02 5.9717335523626742e+00 0 0 0
233 279 9 4.1699999999999998e-01 -1.3024583219846673e+00 -6.2271515405803299e+00 -6.1480372323151853e+00 -1 1 3
223 276 9 4.1699999999999998e-01 -1.2856477422567860e+00 -6.3984574504673946e+00 -2.5366351930039595e+00 -1 -3 -1
362 322 9 4.1699999999999998e-01 4.1258469149771926e-01 -7.0745098620845970e-01 -1.5648635704268379e+00 0 -3 -4
361 322 9 4.1699999999999998e-01 1.7810778580527336e+00 -1.0432889783014083e+00 -2.1183384924429500e+00 0 -3 -4
209 271 9 4.1699999999999998e-01 -3.5679964174156455e+00 -5.5638642020769558e+00 -5.0341830173524160e+00 -1 0 -5
232 279 9 4.1699999999999998e-01 -3.1629060571547774e-01 -5.0894313696186693e+00 -5.9900459661672807e+00 -1 1 3
222 276 10 -8.3399999999999996e-01 -2.0503483988122961e+00 -6.1974704311482078e+00 -1.9971271138483684e+00 -1 -3 -1
632 413 9 4.1699999999999998e-01 -3.7378714554898269e+00 -7.0219922361278790e+00 -6.6468446235909324e+00 0 1 -1
400 335 9 4.1699999999999998e-01 -1.3855987545184505e+00 -2.7187035304099090e+00 -5.8142926231903411e+00 0 -1 -3
513 373 10 -8.3399999999999996e-01 3.4649117963040932e-01 -4.7536238403517910e+00 -3.4113084218887479e+00 0 -4 -5
399 335 10 -8.3399999999999996e-01 -1.1421077632016605e+00 -3.1160665754601218e+00 -4.9782025608572020e+00 0 -1 -3
506 370 9 4.1699999999999998e-01 -2.0199100030481527e+00 -1.2090063827569106e+00 -1.6936417226268743e+00 0 4 -4
515 373 9 4.1699999999999998e-01 5.1281262045836118e-01 -5.2429813509672085e+00 -4.2169747583036559e+00 0 -4 -5
215 273 9 4.1699999999999998e-01 2.2260159607235903e+00 -2.0487276686157227e-01 -5.0402628856380076e+00 -1 2 -4
655 421 10 -8.3399999999999996e-01 6.5970814043143311e-01 -3.5371006451759848e+00 -4.1984590669412730e-01 0 1 -1
657 421 9 4.1699999999999998e-01 6.4087251651948807e-01 -4.3917574811566400e+00 -8.5047190805161665e-01 0 1 -1
505 370 9 4.1699999999999998e-01 -1.2361778974492101e+00 -1.4313986352022403e+00 -2.9696514658372393e+00 0 4 -4
593 400 9 4.1699999999999998e-01 -2.8170890652647298e+00 -4.4449595593188365e+00 -5.8729576799332861e-01 0 -6 -2
401 335 9 4.1699999999999998e-01 -1.8493351932120501e+00 -3.7332798357355097e+00 -4.7908285888803688e+00 0 -1 -3
631 413 10 -8.3399999999999996e-01 -3.3344900462640812e+00 -7.0729696022534903e+00 -5.7802901873018868e+00 0 1 -1
711 439 9 4.1699999999999998e-01 3.6373188818292150e+00 -5.7446314599370192e+00 -5.2871247804050210e+00 0 6 6
707 438 9 4.1699999999999998e-01 1.3624793956276107e+00 -2.4851086671175433e+00 -3.9628519729431035e+00 0 -3 -1
504 370 10 -8.3399999999999996e-01 -1.1278843319141061e+00 -1.2299803223618144e+00 -2.0401704222816854e+00 0 4 -4
592 400 10 -8.3399999999999996e-01 -2.2764371494192468e+00 -3.6586384879815110e+00 -5.1228564169881430e-01 0 -6 -2
208 271 9 4.1699999999999998e-01 -3.0151215908808804e+00 -5.2899027451680727e+00 -3.6517323893810576e+00 -1 0 -5
514 373 9 4.1699999999999998e-01 -1.6132709606926796e-02 -3.9189412524907055e+00 -3.7080250090749853e+00 0 -4 -5
625 411 10 -8.3399999999999996e-01 2.8934650708633902e+00 -5.8928209939822551e+00 -2.2131342762655857e+00 0 2 -6