LAMMPS data file via write_data, version 16 Mar 2018, timestep = 5000

297 atoms
12 atom types
125 bonds
8 bond types
121 angles
13 angle types
132 dihedrals
18 dihedral types

-9.6833863006523444e+00 9.6833863006523444e+00 xlo xhi
-7.2625397254893098e+00 7.2625397254893098e+00 ylo yhi
-7.2625397254893098e+00 7.2625397254893098e+00 zlo zhi

Masses

1 1.008
2 1.008
3 12.011
4 12.011
5 15.9994
6 15.9994
7 32.06
8 196.966
9 1.008
10 15.9994
11 35.45
12 22.9898

Pair Coeffs # lj/charmmfsw/coul/long

1 0.028 2.38761 0.028 2.38761
2 0.024 2.38761 0.024 2.38761
3 0.056 3.58141 0.01 3.38542
4 0.078 3.63487 0.01 3.38542
5 0.1 2.93997 0.1 2.93997
6 0.12 3.02906 0.12 3.02906
7 0.47 3.74177 0.47 3.74177
8 5.29 2.62904 5.29 2.62904
9 0.046 0.400014 0.046 0.400014
10 0.1521 3.15057 0.1521 3.15057
11 0.15 4.04468 0.15 4.04468
12 0.0469 2.42993 0.0469 2.42993

Bond Coeffs # harmonic

1 222.5 1.53
2 222.5 1.528
3 309 1.111
4 340 1.43
5 322 1.111
6 450 0.9572
7 540 1.448
8 250 1.575

Angle Coeffs # charmm

1 58.35 113.6 11.16 2.561
2 58 115 8 2.561
3 26.5 110.1 22.53 2.179
4 75.7 110.1 0 0
5 34.6 110.1 22.53 2.179
6 15 109 27 1.9
7 34.6 110.1 22.53 2.179
8 35.5 109 5.4 1.802
9 60 109.5 0 0
10 35.5 108.4 5.4 1.802
11 55 104.52 0 0
12 130 109.47 35 2.45
13 85 98 0 0

Dihedral Coeffs # charmmfsw

1 0.101 2 0 1
2 0.142 3 180 0
3 0.074 4 0 0
4 0.097 5 0 0
5 0.162 2 0 1
6 0.047 3 180 0
7 0.105 4 0 0
8 0.177 5 0 0
9 0.19 3 0 1
10 0 3 0 1
11 0.16 3 0 1
12 0 3 0 1
13 0 3 0 1
14 0.19 3 0 1
15 0.19 3 0 1
16 0.19 3 0 1
17 0.16 3 0 1
18 0 3 0 1

Atoms # full

2 2 8 0.0000000000000000e+00 -9.1817657942982436e+00 -4.1071257476372942e+00 -5.8968058265213310e+00 0 0 0
3 3 8 0.0000000000000000e+00 -6.5601573681817715e+00 -5.8754844952988670e+00 -5.3889377447326483e+00 0 0 0
5 5 8 0.0000000000000000e+00 -8.4698357613582118e+00 -5.0704494561785562e+00 -3.3844068597642791e+00 0 0 0
6 6 8 0.0000000000000000e+00 -7.5211386925273622e+00 -3.0334040922846164e+00 -1.5607479818211241e+00 0 0 0
7 7 8 0.0000000000000000e+00 -6.1883594614769892e+00 -6.5977476302205664e+00 -2.6833800737690128e+00 0 0 0
8 8 8 0.0000000000000000e+00 -5.7069347082024331e+00 -3.8464584444732246e+00 -3.6004627042393178e+00 0 0 0
19 19 8 0.0000000000000000e+00 -6.4737982531604850e+00 -3.1105789475579737e+00 -6.2641495701548937e+00 0 0 0
21 21 8 0.0000000000000000e+00 -8.0313189657830844e+00 -1.9479163024489390e+00 -4.3200951707956623e+00 0 0 0
23 23 8 0.0000000000000000e+00 -4.8485999886509514e+00 -1.6185792872136515e+00 -1.9364418001689865e+00 0 0 0
24 24 8 0.0000000000000000e+00 -5.2087648932142985e+00 -1.1857600954483534e+00 -4.6333025954295639e+00 0 0 0
66 66 8 0.0000000000000000e+00 -4.0192827651429015e+00 -4.6574304700668252e+00 -5.7575545426915706e+00 0 0 0
68 68 8 0.0000000000000000e+00 -1.2957982992283181e+00 -3.8094586991775046e+00 -6.1767921732103162e+00 0 0 0
69 69 8 0.0000000000000000e+00 -3.5428342894991154e+00 -5.5809204760599060e+00 -3.0500028689965628e+00 0 0 0
70 70 8 0.0000000000000000e+00 -2.5746227311385645e+00 -3.4165700321417538e+00 -1.3504680730819558e+00 0 0 0
72 72 8 0.0000000000000000e+00 -7.6966104312714023e-01 -4.5219858077386945e+00 -3.5274342758606791e+00 0 0 0
81 81 8 0.0000000000000000e+00 -3.4835715049595004e+00 -2.0500625913852106e+00 -6.8025292974844760e+00 0 0 0
83 83 8 0.0000000000000000e+00 -4.1332329854058791e-01 -1.5542364048743416e+00 -4.4583219442216064e+00 0 0 0
85 85 8 0.0000000000000000e+00 -2.9142717341337905e+00 -2.6782319343965515e+00 -4.0169541633211425e+00 0 0 0
86 86 8 0.0000000000000000e+00 -2.3458126041956717e+00 -4.5414301117502465e-01 -2.3921050492083813e+00 0 0 0
9 9 8 0.0000000000000000e+00 -7.9353652359697930e+00 -5.8746964493007674e+00 -5.1231303377565585e-01 0 0 0
12 12 8 0.0000000000000000e+00 -5.2040313029640970e+00 -4.6558971464340857e+00 -9.6746057663036211e-01 0 0 0
73 73 8 0.0000000000000000e+00 -2.9148311333098871e+00 -6.3403659118987168e+00 -4.0667208431477508e-01 0 0 0
67 67 8 0.0000000000000000e+00 -1.8952555009453844e+00 -6.4755928447021578e+00 -5.2381301370542159e+00 0 0 0
120 120 8 0.0000000000000000e+00 -1.0701209789133603e+00 -7.1497208646767900e+00 -2.6200584841539687e+00 0 1 0
50 50 8 0.0000000000000000e+00 -9.6221997482974029e+00 -7.0879351872242848e+00 -5.0854180288161341e+00 0 1 0
84 84 8 0.0000000000000000e+00 -6.9423034197173372e-01 -9.0225536381262561e-01 -7.1884598709420509e+00 0 0 0
28 28 8 0.0000000000000000e+00 -6.6205271645778847e+00 -9.3696995678713524e-01 1.9666349241259606e-01 0 0 0
18 18 8 0.0000000000000000e+00 -8.3004146500905200e+00 -1.0187451227053108e+00 -6.8923720388302430e+00 0 0 0
71 71 8 0.0000000000000000e+00 -3.6734007623170051e-01 -5.1028851807421143e+00 -7.5675107250557794e-01 0 0 0
48 48 8 0.0000000000000000e+00 -5.1787046711350495e+00 3.7394371200551717e+00 3.4519709332947226e+00 0 0 0
37 37 8 0.0000000000000000e+00 -9.4971174381935892e+00 1.2068297346295491e+00 -3.4432837579403173e+00 0 0 0
22 22 8 0.0000000000000000e+00 -7.1327507839109314e+00 -1.3839850986960744e-01 -2.4261300609851117e+00 0 0 0
82 82 8 0.0000000000000000e+00 -2.4663547478603247e+00 2.3438498060730062e-02 -5.1285263463114035e+00 0 0 0
35 35 8 0.0000000000000000e+00 -7.0429333983061229e+00 8.1396980119715856e-01 -5.1370671238319767e+00 0 0 0
49 49 8 0.0000000000000000e+00 -8.7799243497670325e+00 5.2731292828297320e+00 -6.8311381070815491e+00 0 0 0
39 39 8 0.0000000000000000e+00 -4.7087396173081739e+00 1.1729105894693994e+00 -2.9233160790053425e+00 0 0 0
40 40 8 0.0000000000000000e+00 -7.2902937005950834e+00 3.1528409453624331e+00 -3.6889081843810252e+00 0 0 0
51 51 8 0.0000000000000000e+00 -6.4410427028518233e+00 3.7907910205274078e+00 -6.2488565600868391e+00 0 0 0
52 52 8 0.0000000000000000e+00 -6.2310288039504940e+00 6.4514829301060903e+00 -7.1043369849440507e+00 0 0 0
128 128 8 0.0000000000000000e+00 -1.7106741499667404e+00 6.7219811476879485e+00 4.9571167426558667e+00 0 0 0
54 54 8 0.0000000000000000e+00 -8.9570158057927269e+00 6.6971518262231857e+00 -2.3577603022442419e+00 0 0 0
55 55 8 0.0000000000000000e+00 -6.4674514952240187e+00 5.1857884570112986e+00 -1.9074219156894348e+00 0 0 0
56 56 8 0.0000000000000000e+00 -7.1251291447266203e+00 6.0085894941803826e+00 -4.5599123110723756e+00 0 0 0
98 98 8 0.0000000000000000e+00 -4.3077170659376840e+00 2.0580364283498920e+00 -5.5856329188264926e+00 0 0 0
100 100 8 0.0000000000000000e+00 -1.4993576397931889e+00 3.2480236353226921e+00 -5.9313271973745261e+00 0 0 0
101 101 8 0.0000000000000000e+00 -2.2900953090691232e+00 2.3607603233794308e+00 -3.3223493608300645e+00 0 0 0
102 102 8 0.0000000000000000e+00 -3.9821625722146514e+00 3.3690814629584462e+00 -1.2990487032321756e+00 0 0 0
103 103 8 0.0000000000000000e+00 -1.6825234160878075e+00 1.8778954914477080e+00 -6.4468069496344693e-01 0 0 0
113 113 8 0.0000000000000000e+00 -3.7967195513495069e+00 4.7557051569076556e+00 -6.6066793640547559e+00 0 0 0
114 114 8 0.0000000000000000e+00 -4.4172432230592804e+00 6.9338461753442040e+00 -4.8146305735914847e+00 0 0 0
115 115 8 0.0000000000000000e+00 -2.0679914742556349e+00 5.3339712764826235e+00 -4.2643785219505048e+00 0 0 0
117 117 8 0.0000000000000000e+00 -4.6344045731480819e+00 4.2253716794065301e+00 -3.9699979033850719e+00 0 0 0
118 118 8 0.0000000000000000e+00 -3.8524781686513059e+00 6.2610906621770717e+00 -2.1695604679216416e+00 0 0 0
119 119 8 0.0000000000000000e+00 -1.3515282939545354e+00 4.6411778761230664e+00 -1.5874138203837669e+00 0 0 0
44 44 8 0.0000000000000000e+00 -6.4801391648026279e+00 2.2856506612971330e+00 -1.0416401415613867e+00 0 0 0
105 105 8 0.0000000000000000e+00 -4.1131599513140076e+00 5.1190329601186590e-01 -3.5368362944531828e-01 0 0 0
41 41 8 0.0000000000000000e+00 -8.9905897992927635e+00 8.9346052885606930e-01 -4.9022211100434188e-01 0 0 0
38 38 8 0.0000000000000000e+00 -9.0357115057968294e+00 3.5613987121583683e+00 -1.3725163712852213e+00 0 0 0
116 116 8 0.0000000000000000e+00 -1.0303246853812027e+00 5.8549817366308741e+00 -6.8422031516751609e+00 0 0 0
60 60 8 0.0000000000000000e+00 -5.5538811800028407e+00 7.0966154333294220e+00 -4.4167551061124577e-02 0 0 0
34 34 8 0.0000000000000000e+00 -9.3110110939334234e+00 2.4857777017293099e+00 -5.9619275848219715e+00 0 0 0
95 95 8 0.0000000000000000e+00 -1.5051330019544196e-01 -2.9862383238995314e+00 5.6479765514870444e+00 0 0 0
1 1 8 0.0000000000000000e+00 -8.5047664051468832e+00 -6.4062548111040236e+00 6.8157096201854159e+00 0 0 -1
14 14 8 0.0000000000000000e+00 -9.0937511801444977e+00 -5.6923613954983168e+00 3.9721956453437652e+00 0 0 0
92 92 8 0.0000000000000000e+00 -1.7955981203486813e+00 -1.1671715574018409e+00 3.2990523861964505e-01 0 0 0
4 4 8 0.0000000000000000e+00 -5.8087347871641857e+00 -5.0555517819057965e+00 6.5104077906247788e+00 0 0 -1
17 17 8 0.0000000000000000e+00 -8.1714859856912216e+00 -3.5010593088279780e+00 5.9371410752756919e+00 0 0 -1
65 65 8 0.0000000000000000e+00 -3.6110767399026269e+00 -7.0290524524261455e+00 7.1377007901467717e+00 0 0 -1
11 11 8 0.0000000000000000e+00 -7.2050958032243422e+00 -6.5571843459025994e+00 2.1069740020118637e+00 0 0 0
15 15 8 0.0000000000000000e+00 -4.0691068860295152e+00 -6.2250756570925780e+00 4.4189890807803849e+00 0 0 0
16 16 8 0.0000000000000000e+00 -6.5658467780652501e+00 -4.4264934861835705e+00 3.8745117471360011e+00 0 0 0
25 25 8 0.0000000000000000e+00 -9.2791958949786615e+00 -1.9468108638689481e+00 3.1028358214033247e-01 0 0 0
27 27 8 0.0000000000000000e+00 -7.0397096130838976e+00 -3.6875510450332145e+00 1.1018356532451978e+00 0 0 0
29 29 8 0.0000000000000000e+00 -8.7639989677676979e+00 -2.8343478604679362e+00 3.3048506766141195e+00 0 0 0
30 30 8 0.0000000000000000e+00 -7.9736903018594063e+00 -5.3318667764747119e-01 4.8773624583995687e+00 0 0 0
31 31 8 0.0000000000000000e+00 -5.5034615758977248e+00 -2.3518235891367345e+00 5.6863875132620176e+00 0 0 0
32 32 8 0.0000000000000000e+00 -6.1590920950040466e+00 -1.6500742136953228e+00 2.9880063906476941e+00 0 0 0
74 74 8 0.0000000000000000e+00 -4.6207126678430166e+00 -5.2900419275149488e+00 1.7340967916084988e+00 0 0 0
75 75 8 0.0000000000000000e+00 -2.1770088143758670e+00 -7.1128731476664520e+00 2.3021291481954904e+00 0 0 0
76 76 8 0.0000000000000000e+00 -2.0494188195889675e+00 -4.1626718239534641e+00 1.3972358273239198e+00 0 0 0
77 77 8 0.0000000000000000e+00 -1.3871471271805405e+00 -5.0410023208553785e+00 3.9438316331126710e+00 0 0 0
78 78 8 0.0000000000000000e+00 -3.0194107632528908e+00 -4.2375656395690928e+00 6.1152535040839453e+00 0 0 0
79 79 8 0.0000000000000000e+00 -7.0599889642114810e-01 -5.9423663535976257e+00 6.6307452607200315e+00 0 0 0
89 89 8 0.0000000000000000e+00 -4.4142146103291946e+00 -2.5537525065962017e+00 7.1349898032175396e-01 0 0 0
90 90 8 0.0000000000000000e+00 -3.6912877830149515e+00 -3.7682470319663608e-01 2.3385324500786115e+00 0 0 0
91 91 8 0.0000000000000000e+00 -1.3957218440603256e+00 -2.0121117749348301e+00 3.0914090084232200e+00 0 0 0
93 93 8 0.0000000000000000e+00 -3.8034676381301811e+00 -3.4275148667367170e+00 3.5329300102606975e+00 0 0 0
94 94 8 0.0000000000000000e+00 -3.1269917949880108e+00 -8.9109748299281755e-01 5.1233437425512971e+00 0 0 0
13 13 8 0.0000000000000000e+00 -6.6808256625567441e+00 -7.2279335775759463e+00 4.7858747835069018e+00 0 0 0
20 20 8 0.0000000000000000e+00 -5.2776135274596312e+00 -6.9289543800981512e-02 -7.2309562932640095e+00 0 0 0
47 47 8 0.0000000000000000e+00 -5.4457884231470546e+00 6.3430449465447047e-01 4.4976783784280592e+00 0 0 0
62 62 8 0.0000000000000000e+00 -9.4359965555195551e+00 6.1591631417255801e+00 4.9672894412072672e+00 0 0 0
96 96 8 0.0000000000000000e+00 -6.6969457117039966e-01 3.2009913930760181e-01 4.7463416944622630e+00 0 0 0
64 64 8 0.0000000000000000e+00 -7.5093076549866398e+00 5.3405614600838280e+00 2.9374284552400400e+00 0 0 0
63 63 8 0.0000000000000000e+00 -6.9848905187971582e+00 4.4456277599881346e+00 5.6017706132705651e+00 0 0 0
124 124 8 0.0000000000000000e+00 -4.0317621538701509e-01 6.5755207953792354e+00 1.0588744950080198e-01 0 0 0
125 125 8 0.0000000000000000e+00 -2.5238084153723497e+00 4.7150891136056892e+00 3.1197794985262668e+00 0 0 0
109 109 8 0.0000000000000000e+00 -3.0109821717850336e+00 1.9744728088750101e+00 4.1354213022726611e+00 0 0 0
106 106 8 0.0000000000000000e+00 -3.3829716592587111e+00 2.6526959833076589e+00 1.4105586550244666e+00 0 0 0
107 107 8 0.0000000000000000e+00 -1.1919817232773724e+00 9.6802375900664295e-01 2.0240364446008758e+00 0 0 0
108 108 8 0.0000000000000000e+00 -7.6891159924317698e-01 3.8678596781644483e+00 1.0903854891208073e+00 0 0 0
59 59 8 0.0000000000000000e+00 -5.8015939190402772e+00 4.2471934992915088e+00 7.8576016535000726e-01 0 0 0
112 112 8 0.0000000000000000e+00 -4.4092974205785751e-01 3.0082839758911746e+00 3.8389637187819847e+00 0 0 0
110 110 8 0.0000000000000000e+00 -2.1676174244556847e+00 4.0991881503599874e+00 5.8274119952409471e+00 0 0 0
57 57 8 0.0000000000000000e+00 -8.1008475635210289e+00 5.8544790497974297e+00 2.2241055554407030e-01 0 0 0
121 121 8 0.0000000000000000e+00 -3.1432122124894741e+00 5.3767164720160903e+00 4.6318757389681053e-01 0 0 0
126 126 8 0.0000000000000000e+00 -4.3909429621330327e+00 5.6408426319891181e+00 5.3387743594049155e+00 0 0 0
33 33 8 0.0000000000000000e+00 -7.4989148658561824e+00 1.8329552945301621e+00 6.5776972534961082e+00 0 0 -1
36 36 8 0.0000000000000000e+00 -4.7656416678601428e+00 2.8042855691391466e+00 6.1680322564275567e+00 0 0 -1
97 97 8 0.0000000000000000e+00 -2.5455455730188907e+00 1.2674146921696412e+00 6.8411363665944691e+00 0 0 -1
122 122 8 0.0000000000000000e+00 -4.8901800074543607e+00 6.3800946282055246e+00 2.5559712065257152e+00 0 0 0
26 26 8 0.0000000000000000e+00 -8.3850961125701087e+00 7.8277765709406921e-03 2.2541565844821054e+00 0 0 0
42 42 8 0.0000000000000000e+00 -8.2684779420600272e+00 3.0715630725029133e+00 1.1998460306333296e+00 0 0 0
43 43 8 0.0000000000000000e+00 -5.9155321987572655e+00 1.3781234015375023e+00 1.6983735095028063e+00 0 0 0
45 45 8 0.0000000000000000e+00 -7.6574746444230879e+00 2.2652418851604619e+00 3.8568932703794196e+00 0 0 0
53 53 8 0.0000000000000000e+00 -9.6723046138525905e+00 4.7364744248461292e+00 -4.1154077159009539e+00 0 0 0
87 87 8 0.0000000000000000e+00 -2.4315227102762904e-02 -2.3227057358652194e+00 -1.7009282674830430e+00 0 0 0
129 129 7 1.3300000000000001e+00 2.5577907786475755e+00 -4.4885706363315974e+00 -2.6482825053048984e+00 0 0 0
130 129 5 -2.8000000000000003e-01 2.4051638813459242e+00 -3.6412305824147602e+00 -1.3447580216683148e+00 0 0 0
131 129 6 -6.5000000000000002e-01 1.9809231768491138e+00 -3.6218003235620913e+00 -3.6624645211021396e+00 0 0 0
132 129 6 -6.5000000000000002e-01 1.9082618847623642e+00 -5.7471916552800506e+00 -2.4279318693794938e+00 0 0 0
133 129 6 -6.5000000000000002e-01 3.9870511581967332e+00 -4.5877610100569939e+00 -2.9199528884873676e+00 0 0 0
221 275 9 4.1699999999999998e-01 6.4436606770867932e+00 -4.2207423757111062e+00 -5.2061076185259507e+00 0 0 0
222 276 10 -8.3399999999999996e-01 8.3278617788862590e+00 -1.0356823092335476e+00 -5.7030560916416082e+00 0 0 0
223 276 9 4.1699999999999998e-01 7.9608888294122409e+00 -2.8491864553806501e-01 -5.2360332519784123e+00 0 0 0
225 277 10 -8.3399999999999996e-01 8.7194064490548087e+00 -3.9748562249104493e+00 -1.4907674683580092e+00 0 0 0
185 263 9 4.1699999999999998e-01 2.6870441201045043e+00 -3.6646495230979337e-01 -5.2620416981424238e+00 0 0 1
192 266 10 -8.3399999999999996e-01 7.9406200739192769e+00 -5.5588813912390247e+00 6.4928725340789537e+00 0 0 0
194 266 9 4.1699999999999998e-01 7.5212076797110967e+00 -5.1753354777165370e+00 -7.2618760768460575e+00 0 0 1
277 295 10 -8.3399999999999996e-01 2.5917403313315983e+00 -8.2258588724913384e-01 -2.9206928164980468e+00 0 0 1
278 295 9 4.1699999999999998e-01 2.2602810399390165e+00 -5.1803659608446839e-01 -2.0758199605856555e+00 0 0 1
279 295 9 4.1699999999999998e-01 2.3398527092877774e+00 -1.7453659548594418e+00 -2.9588355304915046e+00 0 0 1
255 287 10 -8.3399999999999996e-01 8.0931003469169944e+00 -2.3714052565629977e+00 6.3171988108902806e+00 0 0 -1
256 287 9 4.1699999999999998e-01 7.9751366392137548e+00 -1.5340632056056354e+00 5.8684564552064522e+00 0 0 -1
257 287 9 4.1699999999999998e-01 8.0724399964085904e+00 -2.1497455170004409e+00 7.2482510551105062e+00 0 0 -1
180 262 10 -8.3399999999999996e-01 1.3537400736792051e+00 -5.4727134600660676e+00 -5.5282733793206278e+00 0 0 1
182 262 9 4.1699999999999998e-01 1.3780015425175307e+00 -4.6453883255451682e+00 -5.0472639744823091e+00 0 0 1
183 263 10 -8.3399999999999996e-01 2.3646059038464564e+00 -9.4812359478224106e-01 -5.9506149086690829e+00 0 0 1
46 46 8 0.0000000000000000e+00 9.5647852909109403e+00 3.2958170188998448e+00 5.7469586995665942e+00 -1 0 0
226 277 9 4.1699999999999998e-01 9.2430097636836663e+00 -4.6495742354009835e+00 -1.0583110656357357e+00 0 0 0
219 275 10 -8.3399999999999996e-01 7.1172204488811914e+00 -4.7668725187867924e+00 -5.6116713010218104e+00 0 0 0
220 275 9 4.1699999999999998e-01 7.5003281774552093e+00 -5.2559526939644217e+00 -4.8833457885818374e+00 0 0 0
258 288 10 -8.3399999999999996e-01 8.9910963298284337e+00 -1.4280161180844901e+00 -2.5830108666783298e+00 0 0 0
261 289 10 -8.3399999999999996e-01 7.3707961767692183e+00 -1.9954728030983304e-02 -4.2225856874020362e-01 0 0 0
252 286 10 -8.3399999999999996e-01 5.2932343390935284e+00 -1.0838451567417229e+00 -3.4318691440589850e+00 0 0 0
254 286 9 4.1699999999999998e-01 5.2140153908520102e+00 -1.9397360714085954e+00 -3.8532976690925214e+00 0 0 0
253 286 9 4.1699999999999998e-01 4.3896185544641639e+00 -7.9539901076729880e-01 -3.3026200553681924e+00 0 0 0
228 278 10 -8.3399999999999996e-01 7.3662514165309858e+00 -6.4242719088387554e+00 -3.4597732476589114e+00 0 0 0
184 263 9 4.1699999999999998e-01 2.2685096775872413e+00 -1.7982714332489067e+00 -5.5211494840892072e+00 0 0 1
229 278 9 4.1699999999999998e-01 6.4171571172743889e+00 -6.5438687182009279e+00 -3.4962531477090644e+00 0 0 0
181 262 9 4.1699999999999998e-01 1.7767947710112750e+00 -5.2767343669276645e+00 -6.3643624858352634e+00 0 0 1
259 288 9 4.1699999999999998e-01 9.0597373509533945e+00 -2.3797024380259311e+00 -2.5055021935461346e+00 0 0 0
273 293 9 4.1699999999999998e-01 8.7528930330685526e+00 1.2039109028573289e+00 4.0824157684387803e+00 0 0 0
230 278 9 4.1699999999999998e-01 7.5635012220224738e+00 -6.3533553396063240e+00 -2.5257004294572400e+00 0 0 0
134 129 3 -2.8000000000000003e-01 3.2406494716840761e+00 -4.0721379392642270e+00 -3.0843389181541347e-01 0 0 0
135 129 1 8.9999999999999997e-02 4.3149770163700349e+00 -4.0603420887338579e+00 -5.9174230911676862e-01 0 0 0
138 129 1 8.9999999999999997e-02 3.5280781686884239e+00 -2.0920315303489438e+00 5.4607262960137426e-01 0 0 0
231 279 10 -8.3399999999999996e-01 4.7269167876636828e+00 -3.6417413679525255e+00 -5.1087365498353181e+00 0 0 0
233 279 9 4.1699999999999998e-01 4.3187867970609606e+00 -3.8651529917793508e+00 -4.2721095284581576e+00 0 0 0
232 279 9 4.1699999999999998e-01 3.9911571093801346e+00 -3.5033427552507184e+00 -5.7053355438988751e+00 0 0 0
240 282 10 -8.3399999999999996e-01 8.0746636244194150e+00 -6.6551030384701804e+00 -5.4547404614752804e-01 0 0 0
241 282 9 4.1699999999999998e-01 7.3024132000957422e+00 -6.8609476920787760e+00 -1.8532703272764017e-02 0 0 0
196 267 9 4.1699999999999998e-01 2.2201910511688716e+00 -1.7116445610480202e-01 6.9500742409240068e+00 0 0 0
224 276 9 4.1699999999999998e-01 8.8319357212558458e+00 -1.5077318875572399e+00 -5.0401040568057311e+00 0 0 0
287 298 9 4.1699999999999998e-01 6.3834719095712558e+00 1.1981254820872529e+00 -5.2047117469600028e+00 0 0 0
212 272 9 4.1699999999999998e-01 4.4612817522795396e+00 -6.2399960655624724e+00 -2.6430954472308903e+00 0 1 0
217 274 9 4.1699999999999998e-01 1.3703004091640700e+00 -7.2044977977801876e+00 -4.6450860321240892e+00 0 1 1
210 272 10 -8.3399999999999996e-01 4.7798978032665431e+00 -7.1266931191004232e+00 -2.4737509830564610e+00 0 1 0
211 272 9 4.1699999999999998e-01 4.1712821837844896e+00 7.0444489211308756e+00 -1.8251032172250659e+00 0 0 0
264 290 12 1.0000000000000000e+00 7.0711707293954866e+00 1.7810000463754516e-01 -2.6309318781740423e+00 0 0 0
209 271 9 4.1699999999999998e-01 2.3236673736984734e+00 5.6674347784250880e+00 -1.5743890387675670e+00 0 0 0
10 10 8 0.0000000000000000e+00 9.6138500896034600e+00 -4.7255213638086406e+00 1.4345047985627399e+00 -1 0 0
208 271 9 4.1699999999999998e-01 1.8744160380685688e+00 5.4455092113629817e+00 -3.0031333104063993e+00 0 0 0
246 284 10 -8.3399999999999996e-01 7.3585563491779418e+00 6.4247760480216272e+00 -6.3172006633836411e+00 0 -1 1
186 264 10 -8.3399999999999996e-01 3.6970013657631799e+00 2.6682201212577326e+00 -5.6233988410491094e+00 0 0 0
187 264 9 4.1699999999999998e-01 3.6285702569606322e+00 2.2456622534059107e+00 -4.7671353986409812e+00 0 0 0
188 264 9 4.1699999999999998e-01 2.8418524792075086e+00 3.0767483419941648e+00 -5.7584685354663678e+00 0 0 0
198 268 10 -8.3399999999999996e-01 1.8434965763807423e+00 4.6120318150355946e+00 -6.1721234400746434e+00 0 0 0
200 268 9 4.1699999999999998e-01 1.7496513394485333e+00 5.2562261830497441e+00 -5.4702542620546080e+00 0 0 0
202 269 9 4.1699999999999998e-01 5.4750869430905524e+00 1.2902607195846247e+00 6.4767098797599001e+00 0 0 -1
204 270 10 -8.3399999999999996e-01 3.0513384555846432e+00 2.6104782091837961e+00 -2.9459156365035826e+00 0 0 0
205 270 9 4.1699999999999998e-01 2.3320908144257917e+00 2.0463155016562595e+00 -2.6616224014171905e+00 0 0 0
206 270 9 4.1699999999999998e-01 2.7145182317000369e+00 3.5003340739555941e+00 -2.8403854334187928e+00 0 0 0
207 271 10 -8.3399999999999996e-01 2.2374496959513337e+00 4.9888613826912280e+00 -2.2441154824161931e+00 0 0 0
283 297 10 -8.3399999999999996e-01 6.6862915435529224e+00 4.0132720635611463e+00 -5.0143548644656262e+00 0 0 0
284 297 9 4.1699999999999998e-01 5.8213532831043047e+00 3.6602652983672161e+00 -5.2233780035202217e+00 0 0 0
285 297 9 4.1699999999999998e-01 6.8213238961509148e+00 4.7122585406489268e+00 -5.6543633536057953e+00 0 0 0
286 298 10 -8.3399999999999996e-01 7.1148549337514488e+00 1.3181800104889252e+00 -4.5988302050566823e+00 0 0 0
288 298 9 4.1699999999999998e-01 7.2739869390633025e+00 2.2621635709761794e+00 -4.5987490277092515e+00 0 0 0
289 299 10 -8.3399999999999996e-01 6.7996601164994956e+00 4.9609171492021176e+00 -2.4164542988347684e+00 0 0 0
290 299 9 4.1699999999999998e-01 6.1586585405039003e+00 5.6718122801135245e+00 -2.4035182530292865e+00 0 0 0
291 299 9 4.1699999999999998e-01 6.8098008192249786e+00 4.6634116526891614e+00 -3.3262984728859872e+00 0 0 0
216 274 10 -8.3399999999999996e-01 9.5964585195940977e-01 6.4690038742885090e+00 -4.4947294157801370e+00 0 0 1
218 274 9 4.1699999999999998e-01 3.5461262939556093e-02 6.6082897559451226e+00 -4.7018574389037955e+00 0 0 1
104 104 8 0.0000000000000000e+00 2.8898873510930834e-01 3.4341174088528401e+00 -3.6547827261100818e+00 0 0 0
247 284 9 4.1699999999999998e-01 7.6476212891326902e+00 7.0969069760884089e+00 -5.6998639066487931e+00 0 -1 1
292 300 10 -8.3399999999999996e-01 7.2199455555603862e+00 2.2829466926225521e+00 -1.8997250322810402e+00 0 0 0
293 300 9 4.1699999999999998e-01 7.1732970105029992e+00 3.1854140375335209e+00 -2.2156445323268974e+00 0 0 0
201 269 10 -8.3399999999999996e-01 5.8101279413649642e+00 1.6208531354419176e+00 -7.2147732149187993e+00 0 0 0
294 300 9 4.1699999999999998e-01 7.4994884826231285e+00 2.3621093144812235e+00 -9.8757748699676373e-01 0 0 0
199 268 9 4.1699999999999998e-01 1.4162955043883052e+00 5.0161514517711066e+00 -6.9275130392694120e+00 0 0 0
203 269 9 4.1699999999999998e-01 5.0486141921867347e+00 2.0154689100884902e+00 -6.7895690479744326e+00 0 0 0
297 301 9 4.1699999999999998e-01 7.7613124858304126e+00 4.9573952092143134e+00 -7.6514795058139651e-01 0 0 0
88 88 8 0.0000000000000000e+00 1.7719277737664818e-01 6.9835177324403563e-01 -2.5156650865058729e+00 0 0 0
193 266 9 4.1699999999999998e-01 8.6799022397249708e+00 -4.9793036652511482e+00 6.3085443545336641e+00 0 0 0
249 285 10 -8.3399999999999996e-01 7.0146690889274268e+00 -6.8275848805342303e+00 4.0703470248791991e+00 0 0 0
251 285 9 4.1699999999999998e-01 7.2631774326117551e+00 -6.9037670947735386e+00 4.9916877749258344e+00 0 0 0
214 273 9 4.1699999999999998e-01 2.2059324807210796e+00 -6.6982410844972460e+00 -9.0784087248514211e-01 0 1 0
178 261 9 4.1699999999999998e-01 3.6254764865651374e+00 -4.7065159404049002e+00 6.4562377494327183e+00 0 0 0
148 129 1 8.9999999999999997e-02 2.5981051123337977e+00 -2.9979561958472267e-01 4.1337828002396737e-01 0 0 0
262 289 9 4.1699999999999998e-01 7.8252082972717680e+00 -5.6906321000957760e-01 2.1681297154111778e-01 0 0 0
136 129 1 8.9999999999999997e-02 3.1018611097631581e+00 -5.1141190296680232e+00 5.1550003431060532e-02 0 0 0
137 129 3 -1.7999999999999999e-01 3.1077264512703664e+00 -3.0738893152636022e+00 8.5241465430734920e-01 0 0 0
139 129 1 8.9999999999999997e-02 3.7704220475524775e+00 -3.4090864957021068e+00 1.6788896273951899e+00 0 0 0
250 285 9 4.1699999999999998e-01 7.2100855859363442e+00 -5.9183248915884166e+00 3.8434404498464456e+00 0 0 0
147 129 1 8.9999999999999997e-02 9.2981259382736781e-01 8.0377659309822214e-02 7.6621578616591712e-01 0 0 0
162 129 1 8.9999999999999997e-02 3.0164884886404106e+00 5.4548827846417804e+00 4.1443753239577390e+00 0 0 0
275 294 9 4.1699999999999998e-01 6.9487508702373688e+00 -3.3843390092567285e+00 3.4849458517024559e+00 0 0 0
140 129 3 -1.7999999999999999e-01 1.6971972124791908e+00 -2.7805739543915520e+00 1.4379810006893763e+00 0 0 0
141 129 1 8.9999999999999997e-02 1.3253490367106568e+00 -3.4981910792485311e+00 2.2004302083093901e+00 0 0 0
142 129 1 8.9999999999999997e-02 8.5224486326088389e-01 -2.7433113540645726e+00 7.1739012761007359e-01 0 0 0
237 281 10 -8.3399999999999996e-01 5.2834144396880163e+00 -4.0940430098163434e+00 6.3021130086099166e+00 0 0 0
239 281 9 4.1699999999999998e-01 5.6334267425058062e+00 -4.3129273860320669e+00 7.1658313629251964e+00 0 0 0
143 129 3 -1.7999999999999999e-01 1.7110099286770826e+00 -1.3873453265766678e+00 2.1468255035291790e+00 0 0 0
144 129 1 8.9999999999999997e-02 2.5020277864315776e+00 -1.4232919739805165e+00 2.9262994549555632e+00 0 0 0
145 129 1 8.9999999999999997e-02 7.6552518939579706e-01 -1.3018154461378790e+00 2.7241696400673518e+00 0 0 0
171 259 10 -8.3399999999999996e-01 3.3239959792030955e+00 -6.7054140966851552e+00 2.4502039135061313e+00 0 0 0
172 259 9 4.1699999999999998e-01 3.3294155261509246e+00 6.9187567088758595e+00 2.7738639954684583e+00 0 -1 0
173 259 9 4.1699999999999998e-01 2.6424983468218937e+00 -6.2703387418208134e+00 2.9627420726944056e+00 0 0 0
174 260 10 -8.3399999999999996e-01 1.4998773580810987e+00 -6.4584925763658090e+00 4.7364613281192600e+00 0 0 0
177 261 10 -8.3399999999999996e-01 2.6765278600245335e+00 -4.8324435916708008e+00 6.4639995726391106e+00 0 0 0
179 261 9 4.1699999999999998e-01 2.3200361208749722e+00 -3.9875812007284752e+00 6.1891383916104576e+00 0 0 0
242 282 9 4.1699999999999998e-01 8.6537679380244050e+00 7.1169734127265318e+00 -4.2694772797982683e-01 0 -1 0
243 283 10 -8.3399999999999996e-01 5.8529058175458815e+00 -1.9562740235137968e+00 3.8915569931401492e+00 0 0 0
244 283 9 4.1699999999999998e-01 5.5220280157018902e+00 -1.1391535924910317e+00 4.2647301501805757e+00 0 0 0
245 283 9 4.1699999999999998e-01 5.3954784952308117e+00 -2.6438237594349037e+00 4.3757684035947797e+00 0 0 0
268 292 10 -8.3399999999999996e-01 7.9178147941330188e+00 -1.1743729495917004e+00 2.2073609972404320e+00 0 0 0
269 292 9 4.1699999999999998e-01 7.9211950650702825e+00 -2.4525167945997595e-01 2.4378669529508254e+00 0 0 0
270 292 9 4.1699999999999998e-01 7.3557230217496468e+00 -1.5829801320768846e+00 2.8657796941858447e+00 0 0 0
274 294 10 -8.3399999999999996e-01 7.4147987313070836e+00 -4.1456594502670452e+00 3.8308048989582613e+00 0 0 0
276 294 9 4.1699999999999998e-01 8.1558830668457318e+00 -3.7757449486132533e+00 4.3107886111130060e+00 0 0 0
80 80 8 0.0000000000000000e+00 3.9853857945469784e-01 -5.8745814015498565e+00 1.8722597834352808e+00 0 0 0
175 260 9 4.1699999999999998e-01 7.9154507278773600e-01 -6.7616422112227319e+00 5.3046110845904675e+00 0 0 0
238 281 9 4.1699999999999998e-01 6.0071533805222295e+00 -4.2653737936030636e+00 5.6993888985513834e+00 0 0 0
146 129 3 -1.7999999999999999e-01 1.8873889621187789e+00 -1.9049396416285447e-01 1.2604424683625499e+00 0 0 0
195 267 10 -8.3399999999999996e-01 2.0956119371288242e+00 -4.9744301699385041e-02 6.0087122763312557e+00 0 0 0
197 267 9 4.1699999999999998e-01 1.1509225918203612e+00 -1.3398985553354148e-01 5.8787908303808329e+00 0 0 0
176 260 9 4.1699999999999998e-01 2.1286433071559152e+00 -6.0518875670842416e+00 5.3329117122505636e+00 0 0 0
280 296 10 -8.3399999999999996e-01 8.0736413166222043e+00 4.9977881471260766e-01 6.2461921391775803e+00 0 0 -1
127 127 8 0.0000000000000000e+00 7.1681192714926212e-01 5.1295783198420359e+00 5.5025844062532485e+00 0 0 0
164 129 3 -1.7999999999999999e-01 4.5947263318753624e+00 4.5196101750152700e+00 5.2258067167830617e+00 0 0 0
248 284 9 4.1699999999999998e-01 7.5196839240250100e+00 6.8063379755791669e+00 -7.1802610373272806e+00 0 -1 1
153 129 1 8.9999999999999997e-02 1.6862514277077789e+00 2.2793480115882652e+00 5.8188430814443759e-01 0 0 0
163 129 1 8.9999999999999997e-02 4.5535942066222503e+00 5.2210883765141087e+00 3.1275588553628690e+00 0 0 0
151 129 1 8.9999999999999997e-02 1.5519328433579016e+00 1.1311443720165162e+00 2.8680830682770946e+00 0 0 0
296 301 9 4.1699999999999998e-01 7.5271213408507940e+00 5.7608200156287239e+00 4.9661662949609386e-01 0 0 0
61 61 8 0.0000000000000000e+00 9.2594714593536906e+00 4.1293562332589051e+00 3.0084833652358132e+00 -1 0 0
215 273 9 4.1699999999999998e-01 2.6879492760829677e+00 -7.1592245337585014e+00 4.5139896598652740e-01 0 1 0
263 289 9 4.1699999999999998e-01 7.3174112733267371e+00 8.3995473801527609e-01 -4.9656991364557257e-03 0 0 0
189 265 10 -8.3399999999999996e-01 4.7961754098990728e+00 4.2051978963085990e-01 4.7609329933922240e+00 0 0 0