LAMMPS data file via write_data, version 16 Mar 2018, timestep = 5000

281 atoms
12 atom types
157 bonds
8 bond types
137 angles
13 angle types
132 dihedrals
18 dihedral types

-8.7174696749750460e+00 8.7174696749750460e+00 xlo xhi
-6.5381022562312525e+00 6.5381022562312525e+00 ylo yhi
-6.5381022562312525e+00 6.5381022562312525e+00 zlo zhi

Masses

1 1.008
2 1.008
3 12.011
4 12.011
5 15.9994
6 15.9994
7 32.06
8 196.966
9 1.008
10 15.9994
11 35.45
12 22.9898

Pair Coeffs # lj/charmmfsw/coul/long

1 0.028 2.38761 0.028 2.38761
2 0.024 2.38761 0.024 2.38761
3 0.056 3.58141 0.01 3.38542
4 0.078 3.63487 0.01 3.38542
5 0.1 2.93997 0.1 2.93997
6 0.12 3.02906 0.12 3.02906
7 0.47 3.74177 0.47 3.74177
8 5.29 2.62904 5.29 2.62904
9 0.046 0.400014 0.046 0.400014
10 0.1521 3.15057 0.1521 3.15057
11 0.15 4.04468 0.15 4.04468
12 0.0469 2.42993 0.0469 2.42993

Bond Coeffs # harmonic

1 222.5 1.53
2 222.5 1.528
3 309 1.111
4 340 1.43
5 322 1.111
6 450 0.9572
7 540 1.448
8 250 1.575

Angle Coeffs # charmm

1 58.35 113.6 11.16 2.561
2 58 115 8 2.561
3 26.5 110.1 22.53 2.179
4 75.7 110.1 0 0
5 34.6 110.1 22.53 2.179
6 15 109 27 1.9
7 34.6 110.1 22.53 2.179
8 35.5 109 5.4 1.802
9 60 109.5 0 0
10 35.5 108.4 5.4 1.802
11 55 104.52 0 0
12 130 109.47 35 2.45
13 85 98 0 0

Dihedral Coeffs # charmmfsw

1 0.101 2 0 1
2 0.142 3 180 0
3 0.074 4 0 0
4 0.097 5 0 0
5 0.162 2 0 1
6 0.047 3 180 0
7 0.105 4 0 0
8 0.177 5 0 0
9 0.19 3 0 1
10 0 3 0 1
11 0.16 3 0 1
12 0 3 0 1
13 0 3 0 1
14 0.19 3 0 1
15 0.19 3 0 1
16 0.19 3 0 1
17 0.16 3 0 1
18 0 3 0 1

Atoms # full

1 1 8 0.0000000000000000e+00 -6.1168815750274632e+00 -5.5900312618080452e+00 -5.5306109398679961e+00 0 0 0
2 2 8 0.0000000000000000e+00 -4.3589720863314421e+00 -5.1282260829026658e+00 -3.1586666269067902e+00 0 0 0
4 4 8 0.0000000000000000e+00 -3.9466778091363937e+00 -3.7163659723245659e+00 -5.6189866093421035e+00 0 0 0
5 5 8 0.0000000000000000e+00 -6.3547005020812266e+00 6.1389093930451635e+00 -2.5616505851480014e+00 0 -1 0
6 6 8 0.0000000000000000e+00 -6.2674700127790608e+00 -4.4415296704244636e+00 -8.9342612996327908e-01 0 0 0
7 7 8 0.0000000000000000e+00 -1.8203660877054917e+00 -5.5520393235907308e+00 -1.9502841346713335e+00 0 0 0
8 8 8 0.0000000000000000e+00 -3.6121758842936877e+00 -3.0901725478699316e+00 -1.3592702580845835e+00 0 0 0
17 17 8 0.0000000000000000e+00 -7.0510284689285667e+00 -2.9633582663481697e+00 -6.3459284786204027e+00 0 0 0
18 18 8 0.0000000000000000e+00 -7.3844424833874749e+00 -8.0829780024942899e-01 -4.4684537101363926e+00 0 0 0
19 19 8 0.0000000000000000e+00 -4.7720647883233447e+00 -1.7867997636738400e+00 -3.7255335546409394e+00 0 0 0
20 20 8 0.0000000000000000e+00 -2.6381022713197710e+00 -1.0835951325582380e+00 -5.9256820089981046e+00 0 0 0
21 21 8 0.0000000000000000e+00 -6.8633956713457982e+00 -3.5908751821609579e+00 -3.5232665256622102e+00 0 0 0
22 22 8 0.0000000000000000e+00 -6.8312535078348580e+00 -1.5356019536557151e+00 -1.7464760252268112e+00 0 0 0
233 173 9 4.1699999999999998e-01 -8.6321745969234698e+00 -2.1866572787969325e+00 7.2863574323958868e-01 1 0 0
134 140 10 -8.3399999999999996e-01 -1.9419876944287751e-01 -1.6337959956812060e+00 5.6558137523643657e+00 0 0 0
180 155 9 4.1699999999999998e-01 -1.0400113680383027e+00 -1.5120989647633891e+00 -1.7374116668481330e+00 0 0 0
52 52 8 0.0000000000000000e+00 -3.0448590836017697e+00 -6.1687765959058796e+00 5.4277629202530386e+00 0 1 -1
149 145 10 -8.3399999999999996e-01 -4.2119973996994098e-01 -4.1506403629170023e+00 -5.8213142883612985e+00 0 0 0
10 10 8 0.0000000000000000e+00 -3.8677871169347293e+00 -4.8163206934193257e+00 7.7220411907680298e-01 0 0 0
64 64 8 0.0000000000000000e+00 -1.9508067643428202e+00 5.3290691089805344e+00 3.3196634615330494e+00 0 0 0
181 155 9 4.1699999999999998e-01 -5.3706967721730869e-01 -8.4939139152925947e-02 -1.6467435642945309e+00 0 0 0
31 31 8 0.0000000000000000e+00 -4.7825733107897399e+00 -1.5650458597297003e+00 5.5245922117483586e+00 0 0 0
13 13 8 0.0000000000000000e+00 -1.9541684092180258e+00 -4.9903442794842174e+00 2.8130840714861316e+00 0 0 0
123 136 9 4.1699999999999998e-01 -1.2175755961716463e+00 -2.8768229960564162e+00 -4.1118848627086315e+00 0 0 0
122 136 10 -8.3399999999999996e-01 -1.2809832888483115e+00 -2.5630872619299332e+00 -3.2084434780590492e+00 0 0 0
124 136 9 4.1699999999999998e-01 -7.4888804005334730e-01 -3.1789769855488417e+00 -2.7022813504500687e+00 0 0 0
29 29 8 0.0000000000000000e+00 -6.9587596451827096e+00 -2.3205297845652355e+00 3.8387539821391341e+00 0 0 0
58 58 8 0.0000000000000000e+00 -4.4387584755249643e+00 -6.5186764712898384e+00 2.9558337897513711e+00 0 1 0
24 24 8 0.0000000000000000e+00 -4.0596116270669906e+00 -3.6928006824467108e-01 -1.2687216568100013e+00 0 0 0
47 47 8 0.0000000000000000e+00 -2.4228005864767441e+00 -4.3142358120699598e-01 4.0970700749419278e+00 0 0 0
110 132 10 -8.3399999999999996e-01 -1.0800278771097176e+00 -6.4207290341938581e+00 -4.5960861199150234e+00 0 0 0
208 165 9 4.1699999999999998e-01 -6.8404882897963706e+00 -4.1395818429454456e+00 1.4518960016658697e+00 1 0 0
48 48 8 0.0000000000000000e+00 -2.2249277549852113e+00 2.4667867197202389e+00 3.5122157207521392e+00 0 0 0
112 132 9 4.1699999999999998e-01 -2.0308039793992547e+00 -6.3245944747598761e+00 -4.5223318605311711e+00 0 0 0
11 11 8 0.0000000000000000e+00 -1.8898003117567317e+00 6.1191304689433315e+00 5.9051433793437624e-01 0 -1 0
164 150 10 -8.3399999999999996e-01 -8.3247017020012830e+00 -5.0014955596187693e+00 4.2468178694326886e+00 1 0 0
42 42 8 0.0000000000000000e+00 -6.9456175447902151e+00 3.1112494116270968e+00 4.8760857989653497e+00 0 0 0
46 46 8 0.0000000000000000e+00 -4.7932702821110276e+00 1.2731537321002016e+00 4.9018019767539291e+00 0 0 0
165 150 9 4.1699999999999998e-01 -7.6285223922033092e+00 -5.1676724167511692e+00 3.6093410116083371e+00 1 0 0
131 139 10 -8.3399999999999996e-01 -4.9965671166819803e-01 1.5722253744892205e+00 -2.4484345929734728e+00 0 0 0
27 27 8 0.0000000000000000e+00 -7.6508190284309130e-01 -2.3145555329556133e+00 2.6715549097574600e+00 0 0 0
3 3 8 0.0000000000000000e+00 -3.8571985769570780e+00 5.8202228086039787e+00 -4.9681764395720487e+00 0 -1 0
44 44 8 0.0000000000000000e+00 -3.3924393724147901e+00 1.4490156513951407e+00 1.0148918462332466e+00 0 0 0
25 25 8 0.0000000000000000e+00 -5.6588780271728361e+00 -2.2627147237268570e+00 6.9970108968910072e-01 0 0 0
33 33 8 0.0000000000000000e+00 -5.0258068895423333e+00 2.9044444390342239e-01 -5.4606232003510806e+00 0 0 0
34 34 8 0.0000000000000000e+00 -5.0235694897550189e+00 3.6435722936783206e+00 -3.4453420153272662e+00 0 0 0
35 35 8 0.0000000000000000e+00 -2.9696268850539891e+00 8.4773536585821407e-01 -3.6211710909295052e+00 0 0 0
37 37 8 0.0000000000000000e+00 -7.1895806022185154e+00 2.0717039985864014e+00 -5.2336614985625491e+00 0 0 0
38 38 8 0.0000000000000000e+00 -8.0002245371105527e+00 3.5076403365096036e+00 -2.8293092080805975e+00 0 0 0
39 39 8 0.0000000000000000e+00 -5.9268269690784656e+00 1.0804588898066427e+00 -2.7874689122491794e+00 0 0 0
40 40 8 0.0000000000000000e+00 -3.0974780765842480e+00 2.7003978600463237e+00 -1.4682849019419058e+00 0 0 0
49 49 8 0.0000000000000000e+00 -4.7648783595741726e+00 3.3060912376001115e+00 -6.2281551082045077e+00 0 0 0
50 50 8 0.0000000000000000e+00 -6.9384045646817043e+00 4.7824568296095125e+00 -5.2312783077718379e+00 0 0 0
51 51 8 0.0000000000000000e+00 -2.1892782362127035e+00 3.6113318075215277e+00 -3.9876547514977370e+00 0 0 0
53 53 8 0.0000000000000000e+00 -8.0801502378011030e+00 5.1654483982266184e+00 -3.8815072517897331e-01 0 0 0
55 55 8 0.0000000000000000e+00 -5.7340199893228121e+00 3.2856262585780778e+00 -5.7769258504271992e-01 0 0 0
56 56 8 0.0000000000000000e+00 -3.6930812530300132e+00 5.4137621033546113e+00 -1.7805251771810253e+00 0 0 0
62 62 8 0.0000000000000000e+00 -6.2066696408587578e+00 5.8741559482079806e+00 5.2344188944989911e+00 0 0 0
45 45 8 0.0000000000000000e+00 -5.6358023561117152e+00 2.4555820974558644e+00 2.3556071268960901e+00 0 0 0
30 30 8 0.0000000000000000e+00 -7.2970333416254540e+00 -6.7631935616361716e-02 5.7604352487682879e+00 0 0 0
9 9 8 0.0000000000000000e+00 -5.5444921546732022e+00 6.1241524184337335e+00 3.1052610599485320e-01 0 -1 0
60 60 8 0.0000000000000000e+00 -9.5510165829130944e-01 4.6615686165261403e+00 -1.5781376043221069e+00 0 0 0
28 28 8 0.0000000000000000e+00 -6.1859407943905351e+00 6.8609473428859769e-01 1.7377662342626721e-01 0 0 0
36 36 8 0.0000000000000000e+00 -2.4188258002342389e+00 1.6695856566928802e+00 6.2281292317961805e+00 0 0 -1
26 26 8 0.0000000000000000e+00 -7.5982489017383239e+00 5.8256030954116866e-01 2.9956432641950963e+00 0 0 0
61 61 8 0.0000000000000000e+00 -4.3101579290713588e+00 4.0713861537158609e+00 4.2543869280739228e+00 0 0 0
32 32 8 0.0000000000000000e+00 -4.9068403228253956e+00 -3.5717966224886322e-01 2.7207553341445019e+00 0 0 0
59 59 8 0.0000000000000000e+00 -1.1247015381872787e+00 3.1573316216391119e+00 8.7819621615655663e-01 0 0 0
57 57 8 0.0000000000000000e+00 -3.7261919311616838e+00 4.2075276610686414e+00 1.3622139408205456e+00 0 0 0
54 54 8 0.0000000000000000e+00 -6.8705212154477930e+00 4.9730606118714507e+00 2.5356918325234057e+00 0 0 0
15 15 8 0.0000000000000000e+00 -2.4296551051415696e+00 -3.3328944494446722e+00 5.0878223447720261e+00 0 0 0
14 14 8 0.0000000000000000e+00 -5.3737627728713440e+00 -4.4430552111403188e+00 5.0725683085553870e+00 0 0 0
16 16 8 0.0000000000000000e+00 -4.1500235661023783e+00 -3.0609582819965540e+00 3.0078466943123994e+00 0 0 0
209 165 9 4.1699999999999998e-01 -5.7768845847159529e+00 -4.4458464509643969e+00 2.4877020481638477e+00 1 0 0
207 165 10 -8.3399999999999996e-01 -6.5817962546987072e+00 -4.7948714007081046e+00 2.1017623374723753e+00 1 0 0
231 173 10 -8.3399999999999996e-01 -8.5235710062850050e+00 -3.1275145870569796e+00 8.7577099515597467e-01 1 0 0
179 155 10 -8.3399999999999996e-01 -7.5758979116414782e-01 -8.4652145119958710e-01 -1.1082111970739605e+00 0 0 0
12 12 8 0.0000000000000000e+00 -1.1586138908683843e+00 -3.6909634115643057e+00 1.3396034851921357e-01 0 0 0
43 43 8 0.0000000000000000e+00 -7.3671388919775005e-01 4.2302449719088298e-01 1.8461775678081418e+00 0 0 0
111 132 9 4.1699999999999998e-01 -7.6973958907166562e-01 -5.5509403586824666e+00 -4.8526906531351708e+00 0 0 0
63 63 8 0.0000000000000000e+00 -2.0397933928754934e+00 4.3326796800811449e+00 6.1638777356730303e+00 0 0 0
23 23 8 0.0000000000000000e+00 -2.9105856213854047e+00 -1.4010305099210312e+00 1.0723488674723214e+00 0 0 0
41 41 8 0.0000000000000000e+00 -8.1288852071157987e+00 2.7342149777192963e+00 9.2634897958015738e-01 0 0 0
248 178 9 4.1699999999999998e-01 -7.9633867282139068e+00 1.4228380212728000e+00 -1.6584758242613100e+00 1 0 0
150 145 9 4.1699999999999998e-01 -5.8996107234706407e-01 -4.5892203106341922e+00 6.4195316000016964e+00 0 0 -1
133 139 9 4.1699999999999998e-01 -6.7537894266117782e-01 1.3413502635240455e+00 -3.3619296555538498e+00 0 0 0
136 140 9 4.1699999999999998e-01 -5.0447009843505164e-01 -2.1152712700709504e+00 4.8873323565347837e+00 0 0 0
135 140 9 4.1699999999999998e-01 -1.4990335719073400e-01 -7.2129672973328418e-01 5.3659276186071425e+00 0 0 0
205 164 9 4.1699999999999998e-01 -8.3609566634389889e+00 -5.5200781731511164e+00 2.0894934000580418e+00 1 0 0
166 150 9 4.1699999999999998e-01 -8.7079061222740588e+00 -4.1670254591795324e+00 3.9721028395499802e+00 1 0 0
139 141 9 4.1699999999999998e-01 -5.7773901195802679e-01 5.7714403626682120e-02 -5.6976726232799706e+00 0 0 0
257 181 9 4.1699999999999998e-01 -8.5136449469988502e+00 6.5021853336603685e+00 -3.8693010105880972e+00 1 0 0
214 167 9 4.1699999999999998e-01 -8.6476323345589670e+00 -5.3949156205296518e+00 6.1940524566131385e+00 1 0 0
132 139 9 4.1699999999999998e-01 -8.5389341267114904e-01 2.4575766931459748e+00 -2.3519198018132110e+00 0 0 0
137 141 10 -8.3399999999999996e-01 -1.3230403650178246e-02 4.2231529082025521e-01 -5.0142623101542920e+00 0 0 0
102 65 1 8.9999999999999997e-02 4.6119570952833353e+00 4.2060130361134904e+00 -3.2310331994810060e-01 0 -1 0
169 151 9 4.1699999999999998e-01 1.9792920273785395e+00 -6.3032119955341432e+00 6.2894934311951607e+00 0 0 0
168 151 9 4.1699999999999998e-01 2.0380251531186779e+00 -4.8062140175405030e+00 6.5208021864017693e+00 0 0 0
92 65 1 8.9999999999999997e-02 5.7496617558299263e+00 -4.6056005881664577e+00 -8.9547774779302980e-01 0 0 0
96 65 1 8.9999999999999997e-02 3.7668777777990137e+00 -6.0277371212325317e+00 6.5970165768302724e-01 0 0 0
242 176 9 4.1699999999999998e-01 6.7713675107601432e+00 1.2172135039763399e+00 -3.7903607416403706e+00 0 0 1
218 168 9 4.1699999999999998e-01 5.3168477032184409e+00 -5.9953329670596638e+00 -2.4305254756868209e+00 0 0 1
98 65 1 8.9999999999999997e-02 6.0214930141801446e+00 5.7884127975613877e+00 6.8965089802862956e-01 0 -1 0
104 65 2 8.9999999999999997e-02 6.7800804573407589e+00 3.4363097400168590e+00 -2.9107322836924521e-01 0 -1 0
94 65 3 -1.7999999999999999e-01 4.3899938721815346e+00 -6.0671981493131293e+00 -2.6102994411283476e-01 0 0 0
100 65 3 -1.7999999999999999e-01 5.2870879765356058e+00 4.7282453562312190e+00 -1.0365873329558513e+00 0 -1 0
216 168 10 -8.3399999999999996e-01 5.5220326756378615e+00 -6.1916059842302200e+00 -3.3459662788380524e+00 0 0 1
227 171 9 4.1699999999999998e-01 7.8880783896073545e+00 -1.1977406024040134e+00 -2.7201052120163260e+00 0 0 0
217 168 9 4.1699999999999998e-01 6.4784792476483233e+00 -6.2485254077832328e+00 -3.3709839952151421e+00 0 0 1
186 157 9 4.1699999999999998e-01 2.3732455945497168e+00 -3.9415254743991035e-01 3.3550767833327724e+00 0 0 -1
152 146 10 -8.3399999999999996e-01 3.4255356709858020e-02 -5.1776250222126450e+00 4.9537408281652029e+00 0 0 0
222 170 10 -8.3399999999999996e-01 4.8146934036500681e+00 -1.0049603802736264e+00 -3.5913533701979161e+00 0 0 0
260 182 9 4.1699999999999998e-01 7.4402715851386567e+00 3.7833490777238081e+00 -5.2932865976039443e+00 0 0 0
224 170 9 4.1699999999999998e-01 4.4078542133320688e+00 -5.2979673318241449e-01 -2.8651597546549086e+00 0 0 0
230 172 9 4.1699999999999998e-01 8.4442704170300651e+00 1.8996296695772052e-01 -3.1583414106688856e-02 0 0 0
116 134 10 -8.3399999999999996e-01 9.6587150383000164e-01 -6.2023309866735463e+00 -4.6205063014817327e-01 0 0 0
278 188 9 4.1699999999999998e-01 5.5202204485309974e+00 -1.4198380564917805e+00 4.4211989102553462e+00 0 0 0
158 148 10 -8.3399999999999996e-01 1.1225635903667648e+00 -1.7166960112838661e+00 6.0121333817131539e-01 0 0 0
256 181 9 4.1699999999999998e-01 7.7744563541814315e+00 5.6697223766215741e+00 -3.3310537604670607e+00 0 0 0
204 164 10 -8.3399999999999996e-01 8.3527944304606727e+00 -6.0747114653629781e+00 1.7879665409207641e+00 0 0 0
240 176 10 -8.3399999999999996e-01 7.6276569859326955e+00 7.8704995621820029e-01 -3.8099723581027796e+00 0 0 1
119 135 10 -8.3399999999999996e-01 5.3963414058962655e+00 2.2080997788769361e+00 -4.0063302079730807e+00 0 -1 1
120 135 9 4.1699999999999998e-01 5.0750595332182762e+00 2.0725294249562749e+00 -4.8990977003175225e+00 0 -1 1
127 137 9 4.1699999999999998e-01 4.2699048664531016e+00 5.6397181563594758e+00 -4.2563474257188858e+00 0 -1 0
128 138 10 -8.3399999999999996e-01 1.2142996229269194e+00 1.0341430475596640e+00 -3.5763949746244617e-01 0 0 0
87 65 1 8.9999999999999997e-02 3.9102112750576428e+00 -1.7984910186879848e+00 -8.0084887267083360e-01 0 0 0
114 133 9 4.1699999999999998e-01 1.5737144893861039e+00 -4.1619161204999857e+00 -2.4174677269319744e+00 0 0 0
279 189 10 -8.3399999999999996e-01 7.4123214214631687e+00 2.7411146557294712e+00 6.0860080943018433e+00 0 0 0
280 189 9 4.1699999999999998e-01 7.5731207841846633e+00 1.7962560116342923e+00 6.0801138980891229e+00 0 0 0
90 65 1 8.9999999999999997e-02 5.2137307554069352e+00 -3.8688131780527035e+00 1.1822849718248234e+00 0 0 0
281 189 9 4.1699999999999998e-01 6.4688417623207908e+00 2.8252318635221672e+00 5.9396452377182500e+00 0 0 0
86 65 1 8.9999999999999997e-02 5.6963678629711278e+00 -2.1268984449307862e+00 -8.7149978302257303e-01 0 0 0
85 65 3 -1.7999999999999999e-01 4.7932436251611943e+00 -2.1494010990187205e+00 -2.2231426047556102e-01 0 0 0
88 65 3 -1.7999999999999999e-01 4.5369317110314888e+00 -3.6277410887050379e+00 3.3292477710226009e-01 0 0 0
241 176 9 4.1699999999999998e-01 7.9349461924888693e+00 9.0435567722792154e-01 -4.7102312061452709e+00 0 0 1
163 149 9 4.1699999999999998e-01 4.5026825240356771e-01 4.4488452359009214e+00 2.6323944263248462e+00 0 -1 0
78 65 1 8.9999999999999997e-02 2.8704067579009944e+00 6.7451451104757876e-01 1.5392963385497209e+00 0 0 0
145 143 9 4.1699999999999998e-01 7.1543514308721612e-01 4.7119313049437386e+00 5.6879456338549970e+00 0 -1 -1
187 157 9 4.1699999999999998e-01 1.4560513366948840e+00 -1.3384319703363534e+00 2.6033817798132182e+00 0 0 -1
277 188 9 4.1699999999999998e-01 4.2022593190782693e+00 -1.9543949026915808e+00 4.9457271064600024e+00 0 0 0
206 164 9 4.1699999999999998e-01 8.4867883247369136e+00 -6.1498738896005767e+00 8.4189586356390578e-01 0 0 0
68 65 6 -6.5000000000000002e-01 2.0898695849223259e+00 2.1860892115759958e+00 5.9363798879824534e+00 0 0 0
66 65 5 -2.8000000000000003e-01 2.0309680046089458e+00 1.5735374173606500e+00 3.6854905270298692e+00 0 0 0
107 131 10 -8.3399999999999996e-01 3.1167896710011487e+00 -4.4645648600327874e+00 -3.7653875650412845e+00 0 0 0
82 65 3 -1.7999999999999999e-01 4.9339399844706904e+00 -1.0362163811792939e+00 9.0002339381317142e-01 0 0 0
229 172 9 4.1699999999999998e-01 8.0290071110079353e+00 -5.7590438046238646e-02 1.4051560062113078e+00 0 0 0
167 151 10 -8.3399999999999996e-01 2.5484902371489397e+00 -5.6103238858847249e+00 -6.4482224175684966e+00 0 0 1
203 163 9 4.1699999999999998e-01 8.1677472112999645e+00 -3.7212526123850336e+00 -2.0527744040842100e+00 0 0 0
121 135 9 4.1699999999999998e-01 4.6039428317273021e+00 2.2402549384797608e+00 -3.4680678704511365e+00 0 -1 1
235 174 9 4.1699999999999998e-01 7.3737574498328442e+00 -2.8388855587237098e+00 4.9873282891413053e+00 0 0 0
97 65 3 -1.7999999999999999e-01 5.6008426468458108e+00 6.0115712294180232e+00 -3.1575419398634796e-01 0 -1 0
103 65 4 -2.7000000000000002e-01 6.4439509458989921e+00 3.8346251518999912e+00 -1.2739005805465879e+00 0 -1 0
106 65 2 8.9999999999999997e-02 7.2449144523317059e+00 4.4588100604873224e+00 -1.7282555161869348e+00 0 -1 0
267 185 10 -8.3399999999999996e-01 3.4836251258566726e+00 -3.5460221708658071e+00 3.7576438851077247e+00 0 1 0
269 185 9 4.1699999999999998e-01 2.9915237374123915e+00 -3.9646476060432203e+00 3.0496568593270981e+00 0 1 0
197 161 12 1.0000000000000000e+00 4.2701320041123907e+00 -5.3710388172282766e+00 4.7651293501202003e+00 0 0 -1
95 65 1 8.9999999999999997e-02 3.6714554572973839e+00 -6.4696552287514288e+00 -1.0089051551916981e+00 0 0 0
99 65 1 8.9999999999999997e-02 6.3700384349796320e+00 -6.5202402311114485e+00 -9.0698994056300553e-01 0 0 0
101 65 1 8.9999999999999997e-02 4.6777347438436454e+00 4.8177044219510252e+00 -1.9630180229521850e+00 0 -1 0
105 65 2 8.9999999999999997e-02 6.2452137142792292e+00 2.9502484239198372e+00 -1.9188454323019650e+00 0 -1 0
211 166 9 4.1699999999999998e-01 5.1239988324146122e+00 -4.0117877070032071e+00 -5.4870303293839013e+00 0 0 1
155 147 10 -8.3399999999999996e-01 1.6042717974031699e+00 3.7291689730179405e+00 -1.7933206201792107e-01 0 -1 0
184 156 9 4.1699999999999998e-01 1.9804300598893505e+00 2.8916356390682463e-01 -3.2964173962527643e+00 0 0 1
157 147 9 4.1699999999999998e-01 2.0403078379696513e+00 3.9026285946858144e+00 -1.0150598057380602e+00 0 -1 0
182 156 10 -8.3399999999999996e-01 2.4835870548184591e+00 1.0108467894393316e+00 -2.9160783742990657e+00 0 0 1
210 166 10 -8.3399999999999996e-01 4.7095534893116717e+00 -3.7744047122581730e+00 -6.3180168269416299e+00 0 0 1
212 166 9 4.1699999999999998e-01 3.7691609864418805e+00 -3.8413340734731793e+00 -6.1452914560147169e+00 0 0 1
183 156 9 4.1699999999999998e-01 2.2436342570367653e+00 1.0082532557529511e+00 -1.9881409707205879e+00 0 0 1
268 185 9 4.1699999999999998e-01 2.8976535751277073e+00 -2.8622890949535646e+00 4.0859731710066294e+00 0 1 0
172 152 9 4.1699999999999998e-01 4.5612880556207536e-01 -5.1100259554148479e+00 1.4649612595252473e+00 0 0 0
171 152 9 4.1699999999999998e-01 1.5666572262979432e+00 -5.7988409636512088e+00 2.2332199181545915e+00 0 0 0
170 152 10 -8.3399999999999996e-01 1.0108418922430253e+00 -5.0180316209449725e+00 2.2411613725052897e+00 0 0 0
239 175 9 4.1699999999999998e-01 2.5933873086633703e+00 -2.2558377089514163e+00 -6.2198272405564685e+00 0 0 1
173 153 10 -8.3399999999999996e-01 1.4938224861925509e+00 -1.5447789371510376e+00 -3.8214999974151480e+00 0 0 0
175 153 9 4.1699999999999998e-01 1.0274922953056063e+00 -2.1636964421290132e+00 -3.2574727469326277e+00 0 0 0
174 153 9 4.1699999999999998e-01 2.2554911355944487e+00 -2.0337922490055282e+00 -4.1367301963995757e+00 0 0 0
273 187 10 -8.3399999999999996e-01 6.2156364057855598e+00 -5.4880453094611550e+00 3.2649926445804978e+00 0 1 0
275 187 9 4.1699999999999998e-01 6.5676779885422416e+00 -4.5977166835334708e+00 3.2198480773052216e+00 0 1 0
274 187 9 4.1699999999999998e-01 6.9579655548730575e+00 -6.0516003886906589e+00 3.0413653246051870e+00 0 1 0
93 65 1 8.9999999999999997e-02 4.0821658655815085e+00 -4.3481846763742773e+00 -1.6397195017953123e+00 0 0 0
91 65 3 -1.7999999999999999e-01 4.6501189333725002e+00 -4.6642728032554466e+00 -7.3689243062345078e-01 0 0 0
237 175 10 -8.3399999999999996e-01 2.1218979349353440e+00 -2.9143553947905652e+00 6.3438256680127383e+00 0 0 0
142 142 9 4.1699999999999998e-01 3.4385617476761432e-01 2.2010406596930343e+00 -4.8181852445059326e+00 0 0 0
245 177 9 4.1699999999999998e-01 6.2616062584128294e+00 -2.5389412003059242e-01 5.7610583709487271e+00 0 0 0
246 178 10 -8.3399999999999996e-01 8.5787789899429256e+00 1.1513459378702429e+00 -1.4396198219882477e+00 0 0 0
118 134 9 4.1699999999999998e-01 6.3951731583098947e-01 6.0494613173865952e+00 -9.8053341813149508e-02 0 -1 0
263 183 9 4.1699999999999998e-01 6.8361333740047368e+00 6.3744211834536380e-01 3.5972240359509131e+00 0 0 0
83 65 1 8.9999999999999997e-02 4.0872880191908276e+00 -1.1798845530762874e+00 1.6072137772336239e+00 0 0 0
153 146 9 4.1699999999999998e-01 2.2140796998850831e-01 -5.1347700909127632e+00 4.0147038841361722e+00 0 0 0
238 175 9 4.1699999999999998e-01 1.4221875161439019e+00 -2.4245868464637965e+00 5.9088667764530678e+00 0 0 0
195 160 9 4.1699999999999998e-01 3.0495029845828103e+00 4.4453800087138662e+00 -3.4987284584525722e+00 0 0 0
271 186 9 4.1699999999999998e-01 4.3888558408824512e+00 3.6434492218210961e+00 -6.2466033243289152e+00 0 0 1
276 188 10 -8.3399999999999996e-01 4.8399881733474910e+00 -1.2506525846307772e+00 5.0748875698225442e+00 0 0 0
254 180 9 4.1699999999999998e-01 7.8369240951094881e+00 2.9240010641600245e+00 4.0073203198709608e+00 0 0 -1
77 65 1 8.9999999999999997e-02 3.6583579971281477e+00 2.1176550728034043e+00 7.4749979514300513e-01 0 0 0
190 158 9 4.1699999999999998e-01 5.6957822918257293e+00 3.8694251200510612e+00 3.5909807293260920e+00 0 0 -1
156 147 9 4.1699999999999998e-01 1.6338974297162974e+00 2.7757014435537934e+00 -8.6174852638755794e-02 0 -1 0
177 154 9 4.1699999999999998e-01 3.6304334624564039e+00 -2.9679364641629125e-01 6.4253853397863638e+00 0 0 -1
178 154 9 4.1699999999999998e-01 2.5641108800079042e+00 6.1163943424742229e-01 -6.0714580314610238e+00 0 0 0
176 154 10 -8.3399999999999996e-01 3.0362682924805213e+00 -2.0553152444531708e-01 -5.9042976143643777e+00 0 0 0
219 169 10 -8.3399999999999996e-01 5.7093965390750601e+00 6.4948319840512125e+00 6.3075148626339184e+00 0 -1 0
221 169 9 4.1699999999999998e-01 6.6424756193313854e+00 -6.4071790061359080e+00 6.1745617328519335e+00 0 0 0
220 169 9 4.1699999999999998e-01 5.6875851560192032e+00 5.7285923548708171e+00 -6.1933136633848180e+00 0 -1 1
262 183 9 4.1699999999999998e-01 8.0310525063735767e+00 -2.0583539596152800e-01 3.9959868243069971e+00 0 0 0
272 186 9 4.1699999999999998e-01 3.7185561247487193e+00 2.4528227052864802e+00 6.1730477127061816e+00 0 0 0
270 186 10 -8.3399999999999996e-01 4.5522792463160116e+00 2.7423319965414121e+00 -6.5293311931078222e+00 0 0 1
261 183 10 -8.3399999999999996e-01 7.1946534462412135e+00 -2.4889137997451716e-01 3.5298977393485353e+00 0 0 0
79 65 3 -1.7999999999999999e-01 4.8610513404599391e+00 4.3004190647628615e-01 4.8986857103040382e-01 0 0 0
185 157 10 -8.3399999999999996e-01 1.9134652340739713e+00 -1.2309624758368143e+00 3.4387724239751547e+00 0 0 -1
81 65 1 8.9999999999999997e-02 4.5361413606896512e+00 5.2066045828473939e-01 -5.7023010296770948e-01 0 0 0
72 65 1 8.9999999999999997e-02 2.8259573978728731e+00 3.3696042396608439e+00 2.7048904112260219e+00 0 0 0
84 65 1 8.9999999999999997e-02 5.8654320772424207e+00 -1.2661451773548915e+00 1.4630827210109532e+00 0 0 0
73 65 3 -1.7999999999999999e-01 4.2249547839449431e+00 1.6632649243249729e+00 2.7411529945970523e+00 0 0 0
146 144 10 -8.3399999999999996e-01 3.0797911640887161e+00 5.9989929023048765e+00 3.5243415812996295e+00 0 -1 -1
147 144 9 4.1699999999999998e-01 2.3110928394116428e+00 5.5326708592030132e+00 3.1922223890547370e+00 0 -1 -1
148 144 9 4.1699999999999998e-01 3.7966479886962929e+00 5.3677459529795799e+00 3.4449809206261142e+00 0 -1 -1
75 65 1 8.9999999999999997e-02 5.1393940654062202e+00 2.2937380488639105e+00 2.6787650462059096e+00 0 0 0
74 65 1 8.9999999999999997e-02 4.4879220119357139e+00 7.3070444124136102e-01 3.2877312736450355e+00 0 0 0
70 65 3 -2.8000000000000003e-01 3.0835328920600915e+00 2.5261257043600933e+00 3.3829643899238961e+00 0 0 0
89 65 1 8.9999999999999997e-02 3.4772131953310534e+00 -3.7005914136293390e+00 6.6349098407682661e-01 0 0 0
80 65 1 8.9999999999999997e-02 5.9015257083598325e+00 7.8085098396122810e-01 6.6855933054437244e-01 0 0 0
71 65 1 8.9999999999999997e-02 3.6555817049733026e+00 2.8236690221850482e+00 4.2895021288298265e+00 0 0 0
188 158 10 -8.3399999999999996e-01 5.4256628496276491e+00 4.7664445530429420e+00 3.7935773694540655e+00 0 0 -1
189 158 9 4.1699999999999998e-01 6.2478231510882871e+00 5.2405069083213904e+00 3.9276460870899887e+00 0 0 -1
76 65 3 -1.7999999999999999e-01 3.8379229445946024e+00 1.1676248106281024e+00 1.2977601350791623e+00 0 0 0
113 133 10 -8.3399999999999996e-01 1.0497374603010243e+00 -3.6238983747660960e+00 -1.8219614031468812e+00 0 0 0
162 149 9 4.1699999999999998e-01 1.1902118060512823e+00 4.6797771440569624e+00 1.3296638655220097e+00 0 -1 0
223 170 9 4.1699999999999998e-01 4.4264157859939992e+00 -6.1944729223443762e-01 -4.3782943517497719e+00 0 0 0
236 174 9 4.1699999999999998e-01 6.5300157687316904e+00 -3.2960466355329952e+00 6.1608121838358114e+00 0 0 0
243 177 10 -8.3399999999999996e-01 6.9452363875849770e+00 1.8594124756536878e-02 6.3751053660510513e+00 0 0 0
265 184 9 4.1699999999999998e-01 7.4074411359156755e+00 -1.9497578403080187e+00 3.1603804026205209e+00 0 0 0
140 142 10 -8.3399999999999996e-01 8.7691337563200733e-01 2.9967979723589382e+00 -4.7824765092862425e+00 0 0 0
226 171 9 4.1699999999999998e-01 6.5758001461111704e+00 -1.7916657202308963e+00 -3.1924682660811086e+00 0 0 0
191 159 10 -8.3399999999999996e-01 1.2605731354726508e+00 6.4260703626718287e+00 -3.1289933536920667e+00 0 0 0
125 137 10 -8.3399999999999996e-01 3.6881738921550635e+00 5.3646740507586133e+00 -4.9666953503902871e+00 0 -1 0
109 131 9 4.1699999999999998e-01 2.5590995361913684e+00 -5.1689391298442624e+00 -4.0992955482578335e+00 0 0 0
264 184 10 -8.3399999999999996e-01 7.6094296406585435e+00 -2.8866964505828983e+00 3.1590391792540524e+00 0 0 0
244 177 9 4.1699999999999998e-01 7.0184403316056123e+00 -7.1093046810249483e-01 -6.0837755584883642e+00 0 0 1
252 180 10 -8.3399999999999996e-01 7.4377281393235535e+00 2.5992611410974851e+00 3.1987170767547886e+00 0 0 -1
143 143 10 -8.3399999999999996e-01 6.0606085007994537e-01 5.4693109145772150e+00 6.2650652007929066e+00 0 -1 -1
126 137 9 4.1699999999999998e-01 3.6864011121274327e+00 6.1045614059236692e+00 -5.5759683177964208e+00 0 -1 0
196 160 9 4.1699999999999998e-01 2.1384659566387594e+00 3.3039049771307569e+00 -3.0925503068317179e+00 0 0 0
200 162 9 4.1699999999999998e-01 7.8180621397798937e+00 -3.4194572680987578e+00 -3.9991896114738608e+00 0 0 0
255 181 10 -8.3399999999999996e-01 8.1927119256983225e+00 6.5280080583246667e+00 -3.2470813520510284e+00 0 0 0
258 182 10 -8.3399999999999996e-01 7.1308069544191728e+00 4.3021382511251884e+00 -4.5491503787204595e+00 0 0 0
228 172 10 -8.3399999999999996e-01 8.3203240082289192e+00 -5.0960364869609709e-01 6.1176653755397226e-01 0 0 0
194 160 10 -8.3399999999999996e-01 2.6177296917163435e+00 4.0542473509393551e+00 -2.7376613855160730e+00 0 0 0
259 182 9 4.1699999999999998e-01 6.4618625964459113e+00 3.7541489777771178e+00 -4.1357833326738813e+00 0 0 0
69 65 6 -6.5000000000000002e-01 2.0263643157233879e-01 9.7567002883840459e-01 4.9345139448437925e+00 0 0 0
193 159 9 4.1699999999999998e-01 1.3249823498732987e+00 5.4721362334850729e+00 -3.0618195864443134e+00 0 0 0
253 180 9 4.1699999999999998e-01 7.9443554572595509e+00 3.0124567361942232e+00 2.4978233218284798e+00 0 0 -1
65 65 7 1.3300000000000001e+00 1.1436959281021153e+00 2.0261112132208092e+00 4.7972227821799125e+00 0 0 0
225 171 10 -8.3399999999999996e-01 7.4451398934691895e+00 -2.0343948099994984e+00 -2.8700044809907910e+00 0 0 0
202 163 9 4.1699999999999998e-01 8.1690074747893284e+00 -5.2370625357200247e+00 -2.0692965920434245e+00 0 0 0
234 174 10 -8.3399999999999996e-01 7.3560177632708950e+00 -2.8601924190886967e+00 5.9453926496929741e+00 0 0 0
192 159 9 4.1699999999999998e-01 5.0545753766174428e-01 -6.4998650602228869e+00 -3.6998443069344606e+00 0 1 0
154 146 9 4.1699999999999998e-01 2.3446359097060210e-01 -6.0826627984999604e+00 5.1976151238090322e+00 0 0 0
199 162 9 4.1699999999999998e-01 7.9259373977044483e+00 -3.3717927064441562e+00 -5.5104950745626535e+00 0 0 0
251 179 9 4.1699999999999998e-01 8.2772877345438438e+00 5.8816967724142595e+00 5.0454620389520377e+00 0 0 -1
115 133 9 4.1699999999999998e-01 8.4060760497896680e-01 -4.2080496118408774e+00 -1.0914283796210515e+00 0 0 0