LAMMPS data file via write_data, version 16 Mar 2018, timestep = 500000

714 atoms
12 atom types
403 bonds
8 bond types
260 angles
13 angle types
132 dihedrals
18 dihedral types

-1.8846839423845324e+01 1.8846839423845324e+01 xlo xhi
-7.0675649272607872e+00 7.0675649272607872e+00 ylo yhi
-7.0675649272607872e+00 7.0675649272607872e+00 zlo zhi

Masses

1 1.008
2 1.008
3 12.011
4 12.011
5 15.9994
6 15.9994
7 32.06
8 196.966
9 1.008
10 15.9994
11 35.45
12 22.9898

Pair Coeffs # lj/charmmfsw/coul/long

1 0.028 2.38761 0.028 2.38761
2 0.024 2.38761 0.024 2.38761
3 0.056 3.58141 0.01 3.38542
4 0.078 3.63487 0.01 3.38542
5 0.1 2.93997 0.1 2.93997
6 0.12 3.02906 0.12 3.02906
7 0.47 3.74177 0.47 3.74177
8 5.29 2.62904 5.29 2.62904
9 0.046 0.400014 0.046 0.400014
10 0.1521 3.15057 0.1521 3.15057
11 0.15 4.04468 0.15 4.04468
12 0.0469 2.42993 0.0469 2.42993

Bond Coeffs # harmonic/omp

1 222.5 1.53
2 222.5 1.528
3 309 1.111
4 340 1.43
5 322 1.111
6 450 0.9572
7 540 1.448
8 250 1.575

Angle Coeffs # charmm/omp

1 58.35 113.6 11.16 2.561
2 58 115 8 2.561
3 26.5 110.1 22.53 2.179
4 75.7 110.1 0 0
5 34.6 110.1 22.53 2.179
6 15 109 27 1.9
7 34.6 110.1 22.53 2.179
8 35.5 109 5.4 1.802
9 60 109.5 0 0
10 35.5 108.4 5.4 1.802
11 55 104.52 0 0
12 130 109.47 35 2.45
13 85 98 0 0

Dihedral Coeffs # charmmfsw

1 0.101 2 0 1
2 0.142 3 180 0
3 0.074 4 0 0
4 0.097 5 0 0
5 0.162 2 0 1
6 0.047 3 180 0
7 0.105 4 0 0
8 0.177 5 0 0
9 0.19 3 0 1
10 0 3 0 1
11 0.16 3 0 1
12 0 3 0 1
13 0 3 0 1
14 0.19 3 0 1
15 0.19 3 0 1
16 0.19 3 0 1
17 0.16 3 0 1
18 0 3 0 1

Atoms # full

1 1 8 0.0000000000000000e+00 -1.3832867828838666e+01 -5.5579353016130622e+00 -5.0734015623461666e+00 0 0 0
12 12 8 0.0000000000000000e+00 -1.2048686990925273e+01 -4.4860498962968718e+00 -4.0713978924452121e-01 0 0 0
6 6 8 0.0000000000000000e+00 -1.4419774178597113e+01 -5.0721497181826392e+00 -2.1948303917936336e+00 0 0 0
270 292 10 -8.3399999999999996e-01 -1.6477587290911796e+01 -9.6595569424593375e-01 -6.1784693069623486e+00 0 1 0
192 266 10 -8.3399999999999996e-01 -1.6948678541192429e+01 -5.6432670763392183e+00 -1.4960967536504999e-01 0 -1 -2
18 18 8 0.0000000000000000e+00 -1.1931659231456111e+01 -3.1875271199245696e+00 -5.1829380745610756e+00 0 0 0
21 21 8 0.0000000000000000e+00 -1.5011881715925689e+01 -2.9921737991835595e+00 -4.2923581030407867e+00 0 0 0
23 23 8 0.0000000000000000e+00 -1.2825582584443946e+01 -2.7386094467767403e+00 -2.4635099613738944e+00 0 0 0
22 22 8 0.0000000000000000e+00 -1.4605837779978820e+01 -6.5615187184283208e-01 -2.2511671473307437e+00 0 0 0
605 404 9 4.1699999999999998e-01 -1.6644268975817013e+01 -5.1273204711197522e+00 -5.0326078724322283e+00 1 2 2
460 355 9 4.1699999999999998e-01 -1.6970685802693808e+01 -4.4713759149999799e+00 -3.0770913589579623e+00 1 1 3
569 391 9 4.1699999999999998e-01 -1.7953312654398857e+01 -5.9809097614886513e+00 -2.7413848348102441e+00 1 -2 1
193 266 9 4.1699999999999998e-01 -1.6746013911470534e+01 -6.4629267116758760e+00 -6.0097240992376744e-01 0 -1 -2
459 355 10 -8.3399999999999996e-01 -1.7128306944505525e+01 -3.9357576793675184e+00 -2.2993298268289610e+00 1 1 3
604 404 10 -8.3399999999999996e-01 -1.6920173602365136e+01 -5.7039026552061918e+00 -4.3198152410554203e+00 1 2 2
2 2 8 0.0000000000000000e+00 -1.1736209059230653e+01 -5.5622995186586310e+00 -3.0386926242147236e+00 0 0 0
422 342 9 4.1699999999999998e-01 -1.8526055614326957e+01 -1.1054104853710074e+00 -4.0093196041214565e+00 1 -1 1
606 404 9 4.1699999999999998e-01 -1.6686227960137302e+01 -6.5830976848013689e+00 -4.6180261200926331e+00 1 2 2
37 37 8 0.0000000000000000e+00 -1.3291896876148797e+01 -7.0495598422632888e-01 -4.9417948663195528e+00 0 0 0
28 28 8 0.0000000000000000e+00 -1.2329508124524899e+01 -6.2637251458744192e-01 -5.0468470953028088e-01 0 0 0
17 17 8 0.0000000000000000e+00 -1.4122580029223165e+01 -2.7167677352860160e+00 -7.0534913218052893e+00 0 0 0
461 355 9 4.1699999999999998e-01 -1.7662398104015054e+01 -3.2063042655067600e+00 -2.6144309240269230e+00 1 1 3
420 342 10 -8.3399999999999996e-01 -1.7642957065349908e+01 -1.2365841031384663e+00 -3.6635245025557657e+00 1 -1 1
194 266 9 4.1699999999999998e-01 -1.6947904919744172e+01 -4.9816243805658500e+00 -8.4161598647033564e-01 0 -1 -2
272 292 9 4.1699999999999998e-01 -1.7283372189393614e+01 -4.4891902513664039e-01 -6.1837304375409667e+00 0 1 0
421 342 9 4.1699999999999998e-01 -1.7175321398893352e+01 -1.6900475410842937e+00 -4.3651879946888386e+00 1 -1 1
271 292 9 4.1699999999999998e-01 -1.6486133655733124e+01 -1.4322764631591918e+00 -7.0146006654736146e+00 0 1 0
322 309 9 4.1699999999999998e-01 -1.8408850496275186e+01 -4.8846376346215221e+00 -6.2476159499171917e+00 1 2 0
541 382 9 4.1699999999999998e-01 -1.7156142363447653e+01 -2.9065900301007241e+00 -3.7868873418310667e-01 1 3 -1
25 25 8 0.0000000000000000e+00 -1.4396144922070224e+01 -2.7626131457377872e+00 -7.3448022126860302e-02 0 0 0
522 376 10 -8.3399999999999996e-01 -1.6352124810218179e+01 -4.7365969897602795e+00 -6.6669694284585921e+00 1 1 -1
52 52 8 0.0000000000000000e+00 -1.1329901542151081e+01 -6.6725850676887495e+00 -5.7858665768567921e+00 0 1 0
523 376 9 4.1699999999999998e-01 -1.5896895923329321e+01 -3.9253540551284214e+00 -6.8934522112510574e+00 1 1 -1
567 391 10 -8.3399999999999996e-01 -1.8797142857314164e+01 -6.3222097696588326e+00 -2.4445537694791604e+00 1 -2 1
9 9 8 0.0000000000000000e+00 -1.3902334293861546e+01 -6.8667978955205031e+00 -5.2226572652491754e-03 0 0 0
623 410 9 4.1699999999999998e-01 -1.6072203015533901e+01 -2.1814951019552353e+00 4.5350579744964952e+00 1 1 2
409 338 9 4.1699999999999998e-01 -1.5345970354802818e+01 -3.3391335375484386e+00 2.8113854818790172e+00 1 1 -2
358 321 9 4.1699999999999998e-01 -1.8116140158501636e+01 -3.4231216492061858e+00 2.6248044480107628e+00 1 1 0
578 395 9 4.1699999999999998e-01 -1.6500011007263730e+01 -5.5008093870933106e+00 3.4040543703880433e+00 1 -4 -1
542 382 9 4.1699999999999998e-01 -1.8168313815935193e+01 -2.5857727762864560e+00 7.0089880157114148e-01 1 3 -1
577 395 10 -8.3399999999999996e-01 -1.6923694997336323e+01 -4.9816432376789956e+00 2.7202395093497449e+00 1 -4 -1
10 10 8 0.0000000000000000e+00 -1.3516525384990192e+01 -4.8934585089392861e+00 1.9442988350871593e+00 0 0 0
524 376 9 4.1699999999999998e-01 -1.6366901274736939e+01 -5.2390801190799667e+00 6.6533372969811451e+00 1 1 -2
622 410 10 -8.3399999999999996e-01 -1.6449333071609143e+01 -2.1613764655209629e+00 5.4148368382923122e+00 1 1 2
26 26 8 0.0000000000000000e+00 -1.2152507621594356e+01 -2.2747269043720841e+00 1.6670795754421137e+00 0 0 0
29 29 8 0.0000000000000000e+00 -1.4188803180263481e+01 -4.4813290304315991e+00 4.7041068537274766e+00 0 0 0
14 14 8 0.0000000000000000e+00 -1.2134328856470793e+01 -4.7049521467100766e+00 6.5087197183008945e+00 0 0 0
30 30 8 0.0000000000000000e+00 -1.1558223503820926e+01 -1.8341400456328651e+00 6.5432000902204424e+00 0 0 0
408 338 10 -8.3399999999999996e-01 -1.5723027623984873e+01 -2.4653132247652083e+00 2.9158365085903215e+00 1 1 -2
540 382 10 -8.3399999999999996e-01 -1.7307086732758709e+01 -2.3296085393181842e+00 3.7027820346387141e-01 1 3 -1
579 395 9 4.1699999999999998e-01 -1.6681873432783284e+01 -5.4179694004509535e+00 1.9030577546551983e+00 1 -4 -1
624 410 9 4.1699999999999998e-01 -1.7305595591045300e+01 -2.5787345055058433e+00 5.3185568395512446e+00 1 1 2
13 13 8 0.0000000000000000e+00 -1.2587600495033691e+01 -6.8104316937988978e+00 4.2334535612687096e+00 0 0 0
410 338 9 4.1699999999999998e-01 -1.6148572264290358e+01 -2.2856889604978647e+00 2.0772120482980538e+00 1 1 -2
41 41 8 0.0000000000000000e+00 -1.4290847831433165e+01 -1.9559554457271044e-01 1.4801355150844495e+00 0 0 0
16 16 8 0.0000000000000000e+00 -1.1418171273959171e+01 -4.2668279973751613e+00 3.8454521890470277e+00 0 0 0
45 45 8 0.0000000000000000e+00 -1.3233953704104788e+01 -1.5980346934921705e+00 4.3209835477491341e+00 0 0 0
610 406 10 -8.3399999999999996e-01 -1.6868225679201188e+01 -6.3518818711118827e+00 5.1661664421989473e+00 1 0 -4
538 381 9 4.1699999999999998e-01 -1.6660526802939774e+01 -5.7222869190524595e-01 7.2071396895848849e-02 1 -2 1
62 62 8 0.0000000000000000e+00 -1.4175616361746158e+01 -6.9360348486364405e+00 6.6133718971003708e+00 0 1 0
611 406 9 4.1699999999999998e-01 -1.6444595462423852e+01 -6.9505246243702095e+00 4.5506934625401216e+00 1 0 -4
202 269 9 4.1699999999999998e-01 -1.8677170951677954e+01 -5.8691417047265828e+00 3.1937268131956413e+00 0 -2 0
612 406 9 4.1699999999999998e-01 -1.7414110571564798e+01 -6.9168721205501731e+00 5.7133760468572232e+00 1 0 -4
672 426 9 4.1699999999999998e-01 -1.7157445391848775e+01 5.5177748523966761e+00 -1.8872912006808846e+00 1 0 0
615 407 9 4.1699999999999998e-01 -1.5596837416950372e+01 5.2262401313623039e+00 -5.3161711002861347e+00 1 -1 1
670 426 10 -8.3399999999999996e-01 -1.6573920715814815e+01 6.1847806237297709e+00 -1.5250115883811537e+00 1 0 0
5 5 8 0.0000000000000000e+00 -1.3661627631814676e+01 6.3213434861973559e+00 -2.7021235400915309e+00 0 -1 0
614 407 9 4.1699999999999998e-01 -1.6594196947001972e+01 4.9333790644852273e+00 -4.2150654648693031e+00 1 -1 1
679 429 10 -8.3399999999999996e-01 -1.6840647151330614e+01 1.2164586124161625e+00 -2.5801069162953034e+00 1 0 -1
681 429 9 4.1699999999999998e-01 -1.7128237384107837e+01 3.5155432528402653e-01 -2.8731543933935733e+00 1 0 -1
34 34 8 0.0000000000000000e+00 -1.2757513811690071e+01 2.5011430409788060e+00 -5.2124150751376312e+00 0 0 0
38 38 8 0.0000000000000000e+00 -1.2574339336562680e+01 1.1554758127723526e+00 -2.8245637372828067e+00 0 0 0
50 50 8 0.0000000000000000e+00 -1.2959647954922289e+01 5.2149194708467297e+00 -5.1751950104195448e+00 0 0 0
53 53 8 0.0000000000000000e+00 -1.4479990962311529e+01 3.5504529720030336e+00 -3.0931594759949412e+00 0 0 0
57 57 8 0.0000000000000000e+00 -1.4339178185535797e+01 1.7296957805694158e+00 -7.1091593788661545e-01 0 0 0
54 54 8 0.0000000000000000e+00 -1.3416779578129761e+01 4.4902851117913167e+00 -5.4087505414538484e-01 0 0 0
641 416 9 4.1699999999999998e-01 -1.5030158896311832e+01 2.8516459458258145e+00 -6.2142156555145061e+00 1 -2 3
44 44 8 0.0000000000000000e+00 -1.1532482948389658e+01 2.2682955307181336e+00 -3.6854306759653976e-01 0 0 0
56 56 8 0.0000000000000000e+00 -1.1803747934412232e+01 3.9846283789737642e+00 -2.8007207923378896e+00 0 0 0
486 364 10 -8.3399999999999996e-01 -1.5454698712651739e+01 1.4165125143865032e+00 -5.1483210281227256e+00 1 0 -1
613 407 10 -8.3399999999999996e-01 -1.6195274922636965e+01 5.6538964877755484e+00 -4.7032869718709716e+00 1 -1 1
216 274 10 -8.3399999999999996e-01 -1.8245460781739361e+01 6.0613829723445738e+00 -6.5594479450418355e+00 0 0 -4
655 421 10 -8.3399999999999996e-01 -1.7368025564168459e+01 3.9888353372830805e+00 -2.8032506699151316e+00 1 -3 -2
671 426 9 4.1699999999999998e-01 -1.5963726648451720e+01 6.3816898575228640e+00 -2.2360204991859307e+00 1 0 0
633 413 9 4.1699999999999998e-01 -1.6851152588054589e+01 2.1516979286137561e+00 -6.2111796341052390e+00 1 -2 1
640 416 10 -8.3399999999999996e-01 -1.5110545427046848e+01 3.7075368953788130e+00 -6.6356805354404464e+00 1 -2 3
631 413 10 -8.3399999999999996e-01 -1.7624331556993177e+01 2.4636777716766707e+00 -6.6818248368605095e+00 1 -2 1
218 274 9 4.1699999999999998e-01 -1.7574713294461269e+01 5.7977959833996051e+00 -5.9291593811262828e+00 0 0 -4
488 364 9 4.1699999999999998e-01 -1.5828910738158433e+01 1.3551967968249441e+00 -4.2692022353908960e+00 1 0 -1
680 429 9 4.1699999999999998e-01 -1.6676054603185648e+01 1.1099285164039623e+00 -1.6429810120815702e+00 1 0 -1
487 364 9 4.1699999999999998e-01 -1.5451889715919179e+01 5.1526190311654929e-01 -5.4714051242578385e+00 1 0 -1
656 421 9 4.1699999999999998e-01 -1.8324281286493655e+01 3.9948647563626567e+00 -2.7565278320412583e+00 1 -3 -2
657 421 9 4.1699999999999998e-01 -1.7143999358312445e+01 3.0836264338789627e+00 -3.0201688376798081e+00 1 -3 -2
537 381 10 -8.3399999999999996e-01 -1.6783268887221066e+01 3.6821736746083555e-01 -5.8848147767965209e-02 1 -2 1
298 301 9 4.1699999999999998e-01 -1.8595925569165523e+01 1.0186658353218769e+00 -6.9219790784486266e+00 1 1 -1
539 381 9 4.1699999999999998e-01 -1.7732996340294896e+01 4.8922941520281071e-01 -5.4588024599568463e-02 1 -2 1
58 58 8 0.0000000000000000e+00 -1.2746603021035501e+01 5.5239466821533751e+00 2.0286610960447815e+00 0 0 0
49 49 8 0.0000000000000000e+00 -1.2358058810953894e+01 2.7404674913189746e+00 6.2317341441966727e+00 0 0 -1
632 413 9 4.1699999999999998e-01 -1.7292111605231437e+01 2.7300494238454798e+00 6.5957969457240067e+00 1 -2 0
61 61 8 0.0000000000000000e+00 -1.3706056378686686e+01 4.3279218265515302e+00 4.3993834773002805e+00 0 0 0
236 280 9 4.1699999999999998e-01 -1.7702778805283440e+01 4.2242320751850748e-02 4.1601327205858949e+00 0 -1 1
658 422 10 -8.3399999999999996e-01 -1.6369067833064243e+01 3.0533740813178811e+00 4.9990736814182961e+00 1 1 -2
642 416 9 4.1699999999999998e-01 -1.4917331506165969e+01 3.5398801349124236e+00 6.5768425917616122e+00 1 -2 2
392 332 9 4.1699999999999998e-01 -1.6268742134825956e+01 1.6375686566809433e+00 1.2517862038856213e+00 1 -1 -1
46 46 8 0.0000000000000000e+00 -1.3796068576329473e+01 1.3218369708394890e+00 3.9899486002839462e+00 0 0 0
239 281 9 4.1699999999999998e-01 -1.8333977907770414e+01 2.0658202071635641e+00 1.1637371297130086e+00 0 0 1
63 63 8 0.0000000000000000e+00 -1.1778573073802999e+01 5.5256165492933755e+00 6.3446907197399467e+00 0 0 0
660 422 9 4.1699999999999998e-01 -1.6296035307280416e+01 2.1502406332821726e+00 4.6897831469609477e+00 1 1 -2
330 312 10 -8.3399999999999996e-01 -1.5993334393476747e+01 5.0180551038993064e+00 1.3883599010447378e+00 1 2 -1
234 280 10 -8.3399999999999996e-01 -1.6907855685682765e+01 5.5886494072189041e-01 4.2937092365862854e+00 0 -1 1
493 366 9 4.1699999999999998e-01 -1.5713845632683512e+01 6.3902472819982252e+00 2.6228597240855693e+00 1 1 0
33 33 8 0.0000000000000000e+00 -1.3721658357649792e+01 1.3228472636004618e-01 6.5406379027172568e+00 0 0 -1
331 312 9 4.1699999999999998e-01 -1.6203364594721474e+01 4.0876460179714362e+00 1.4712491483322774e+00 1 2 -1
367 324 9 4.1699999999999998e-01 -1.8430172274130193e+01 4.9104333183489901e+00 2.3056356547095840e+00 1 -3 -1
332 312 9 4.1699999999999998e-01 -1.6169290282086045e+01 5.2229530003293183e+00 4.6982803905051895e-01 1 2 -1
390 332 10 -8.3399999999999996e-01 -1.6500190665630441e+01 2.1786744001575622e+00 2.0069549020708690e+00 1 -1 -1
659 422 9 4.1699999999999998e-01 -1.6509756419865745e+01 3.5685906366703426e+00 4.2044649580612115e+00 1 1 -2
42 42 8 0.0000000000000000e+00 -1.3316630697629638e+01 2.8437100836374780e+00 1.7210318216715459e+00 0 0 0
43 43 8 0.0000000000000000e+00 -1.1488235733079058e+01 6.3518057748113232e-01 2.0907846720718242e+00 0 0 0
366 324 10 -8.3399999999999996e-01 -1.8598572111654139e+01 4.5543656904029719e+00 3.1782761886925188e+00 1 -3 -1
492 366 10 -8.3399999999999996e-01 -1.5318225275898737e+01 6.9199680132467032e+00 3.3153366853373489e+00 1 1 0
391 332 9 4.1699999999999998e-01 -1.6524811186338066e+01 1.5663130867249917e+00 2.7425170228215565e+00 1 -1 -1
494 366 9 4.1699999999999998e-01 -1.4388583997897193e+01 6.6924215403789917e+00 3.2901663517654081e+00 1 1 0
48 48 8 0.0000000000000000e+00 -1.1441961663009263e+01 5.0702653421837773e-01 4.9487897268069849e+00 0 0 0
235 280 9 4.1699999999999998e-01 -1.6367850557610353e+01 2.2611115920921243e-02 4.8746314266964381e+00 0 -1 1
4 4 8 0.0000000000000000e+00 -9.0752945667829970e+00 -5.0338517393854012e+00 -6.1105357661661612e+00 0 0 0
24 24 8 0.0000000000000000e+00 -1.0787140284630716e+01 -9.1817939927137093e-01 -3.5362915087768521e+00 0 0 0
101 101 8 0.0000000000000000e+00 -7.1922786389139404e+00 -1.1645433258120477e+00 -1.0675923438034065e+00 0 0 0
19 19 8 0.0000000000000000e+00 -9.7929374738120725e+00 -3.6124262613018296e+00 -3.5178920235493649e+00 0 0 0
20 20 8 0.0000000000000000e+00 -9.4288950177056989e+00 -2.0430232901274392e+00 -5.8037603603881065e+00 0 0 0
86 86 8 0.0000000000000000e+00 -9.9992618827706767e+00 -2.5667768030615541e+00 -1.1172246637029586e+00 0 0 0
8 8 8 0.0000000000000000e+00 -9.3779458184933215e+00 -5.3057646237227445e+00 -1.1125367052354278e+00 0 0 0
66 66 8 0.0000000000000000e+00 -7.9915210693321495e+00 -5.8985029346113205e+00 -3.5969030239557465e+00 0 0 0
67 67 8 0.0000000000000000e+00 -6.0725563708065788e+00 -5.8121565767597216e+00 -5.7664661064843266e+00 0 0 0
70 70 8 0.0000000000000000e+00 -6.4194588375929342e+00 -6.1071776427987823e+00 -1.0783373699353485e+00 0 0 0
87 87 8 0.0000000000000000e+00 -4.9788461736295186e+00 -2.8522873836103804e+00 -6.8973488468114663e-01 0 0 0
81 81 8 0.0000000000000000e+00 -7.1610798025885423e+00 -3.5235112060968845e+00 -4.8878158688062303e+00 0 0 0
82 82 8 0.0000000000000000e+00 -8.0375731996810416e+00 -1.1436233680410606e+00 -3.6730619378857687e+00 0 0 0
83 83 8 0.0000000000000000e+00 -5.0347438691523312e+00 -4.7640611999676832e+00 -3.1953450396746690e+00 0 0 0
84 84 8 0.0000000000000000e+00 -4.3980347467336856e+00 -3.2557965487256522e+00 -5.9662036023456659e+00 0 0 0
85 85 8 0.0000000000000000e+00 -7.3554300730525455e+00 -3.6193330716446148e+00 -2.1574499720657627e+00 0 0 0
88 88 8 0.0000000000000000e+00 -5.3038920609340625e+00 -1.8967513000029417e+00 -3.5632090062728272e+00 0 0 0
94 94 8 0.0000000000000000e+00 -6.7495020485409842e+00 -1.2267572072255266e+00 -6.4575163069860251e+00 0 0 1
72 72 8 0.0000000000000000e+00 -3.8352126458667311e+00 -7.0093817632168456e+00 -2.0464023353081897e+00 0 0 0
292 299 9 4.1699999999999998e-01 -3.8642340788658380e+00 -6.0920536749778247e+00 -5.7000808083132801e+00 0 0 1
79 79 8 0.0000000000000000e+00 -7.2474451600200265e+00 -6.6623555620757715e+00 5.9833365849334319e+00 0 0 0
105 105 8 0.0000000000000000e+00 -9.4315689801954683e+00 -1.0063509298391384e+00 1.0813462317860543e+00 0 0 0
68 68 8 0.0000000000000000e+00 -4.3154794363570286e+00 -5.2614913119800111e+00 6.1325262935926004e+00 0 0 -1
47 47 8 0.0000000000000000e+00 -8.9920658654067793e+00 -5.7564514070963924e-01 6.0644753048959741e+00 0 0 0
27 27 8 0.0000000000000000e+00 -9.8525939556980031e+00 -3.8384786694049313e+00 1.4674879017739562e+00 0 0 0
31 31 8 0.0000000000000000e+00 -9.2797403371964489e+00 -3.5547557246946018e+00 5.6022303311581085e+00 0 0 0
32 32 8 0.0000000000000000e+00 -1.0442712102714426e+01 -1.6860342950266975e+00 3.7188698499259969e+00 0 0 0
15 15 8 0.0000000000000000e+00 -1.0147163128244047e+01 -6.4183306668972238e+00 5.7555635444149571e+00 0 0 0
65 65 8 0.0000000000000000e+00 -6.7493078142578735e+00 -3.7920834553176186e+00 6.4681264917122450e+00 0 0 -1
74 74 8 0.0000000000000000e+00 -8.8068037982116909e+00 -5.6528078140426938e+00 3.3724653635792565e+00 0 0 0
75 75 8 0.0000000000000000e+00 -6.0899697558843027e+00 -6.5335083019887437e+00 1.8010130168774063e+00 0 0 0
78 78 8 0.0000000000000000e+00 -6.1480996881698324e+00 -4.9089399250879815e+00 3.9930386341443063e+00 0 0 0
109 109 8 0.0000000000000000e+00 -6.5385480611372646e+00 -1.1219188967015468e+00 4.8439353382573431e+00 0 0 0
89 89 8 0.0000000000000000e+00 -7.2769807284138430e+00 -4.2015260723285248e+00 7.4412588023294735e-01 0 0 0
90 90 8 0.0000000000000000e+00 -6.8392089562259262e+00 -8.2073803628142272e-01 1.7460024167231216e+00 0 0 0
91 91 8 0.0000000000000000e+00 -5.1532343514987335e+00 -2.9554622300200375e+00 2.0974800753053904e+00 0 0 0
93 93 8 0.0000000000000000e+00 -7.9913677151779243e+00 -2.8142244073151454e+00 3.2073589055487206e+00 0 0 0
95 95 8 0.0000000000000000e+00 -4.3713823065674848e+00 -2.7770437658593625e+00 4.8609419350582419e+00 0 0 0
11 11 8 0.0000000000000000e+00 -1.1095193585882210e+01 -6.3108616643148459e+00 1.6160971184428083e+00 0 0 0
103 103 8 0.0000000000000000e+00 -4.7275973226191343e+00 -9.2996302764895233e-02 2.7355680846198460e-01 0 0 0
96 96 8 0.0000000000000000e+00 -4.3568424190664263e+00 -3.0946153381161601e-01 3.1382921339915528e+00 0 0 0
111 111 8 0.0000000000000000e+00 -4.3942700582658016e+00 -2.1169771211075883e-02 6.4011522475035898e+00 0 0 0
76 76 8 0.0000000000000000e+00 -4.0605161618747143e+00 -5.3363533847686284e+00 3.6679175465535163e-01 0 0 0
120 120 8 0.0000000000000000e+00 -6.0521239577468169e+00 6.2365971098635251e+00 -3.6143178536969383e+00 0 0 0
3 3 8 0.0000000000000000e+00 -1.0232766557267395e+01 6.1491098138903082e+00 -3.6344373149176397e+00 0 -1 0
39 39 8 0.0000000000000000e+00 -9.6076764896703040e+00 4.5384135349498500e-01 -1.3771918141630470e+00 0 0 0
40 40 8 0.0000000000000000e+00 -1.0145974984129817e+01 1.9826870030479098e+00 -3.8853273417648668e+00 0 0 0
51 51 8 0.0000000000000000e+00 -1.0301034802463599e+01 4.1349420920530120e+00 -5.9566167131853121e+00 0 0 0
55 55 8 0.0000000000000000e+00 -9.1090195787517771e+00 3.3036743538934390e+00 -1.3376512356227099e+00 0 0 0
69 69 8 0.0000000000000000e+00 -8.2858340469385716e+00 5.9642515955243693e+00 -1.6333491830887574e+00 0 -1 0
102 102 8 0.0000000000000000e+00 -7.0269931094427154e+00 1.5463656717928478e+00 -3.6767230725623445e-01 0 0 0
97 97 8 0.0000000000000000e+00 -8.2458255900252073e+00 1.0753912307485001e+00 -5.7727455014022251e+00 0 0 0
98 98 8 0.0000000000000000e+00 -7.5181995061006575e+00 1.5892656676186876e+00 -3.1426158805967654e+00 0 0 0
99 99 8 0.0000000000000000e+00 -5.4833523252220626e+00 8.0986981325887708e-01 -4.9621432108296935e+00 0 0 0
114 114 8 0.0000000000000000e+00 -8.1809310714617300e+00 6.3569029931534535e+00 -5.6929811573679077e+00 0 0 0
104 104 8 0.0000000000000000e+00 -4.7873782916817635e+00 1.4888643678275715e+00 -2.1594635130906443e+00 0 0 0
113 113 8 0.0000000000000000e+00 -7.3861152022327481e+00 3.6599165423261484e+00 -6.4745695363507476e+00 0 0 0
118 118 8 0.0000000000000000e+00 -6.3191190909623369e+00 3.9796439439218956e+00 -1.7552510873525975e+00 0 0 0
115 115 8 0.0000000000000000e+00 -5.4135026910876967e+00 3.4575984743997070e+00 -4.4098436651835842e+00 0 0 0
100 100 8 0.0000000000000000e+00 -4.6669020928553309e+00 2.6753284581563763e+00 -6.9446816280347150e+00 0 0 0
117 117 8 0.0000000000000000e+00 -8.2646674941693163e+00 4.1267564735374238e+00 -3.8765305802050003e+00 0 0 0
7 7 8 0.0000000000000000e+00 -1.1135783837468335e+01 6.5444248630548545e+00 -9.6979925093105290e-01 0 -1 0
35 35 8 0.0000000000000000e+00 -1.0971800174250884e+01 4.8822824615602922e-01 -6.3972357965618096e+00 0 0 0
116 116 8 0.0000000000000000e+00 -5.3703150713352521e+00 5.7641477260369838e+00 -6.7027203777254751e+00 0 0 0
71 71 8 0.0000000000000000e+00 -5.1411074279683611e+00 5.7759992510769012e+00 -1.3894928764534242e-02 0 -1 0
107 107 8 0.0000000000000000e+00 -6.4241195504739945e+00 1.8221955103972585e+00 2.5507639313987136e+00 0 0 0
123 123 8 0.0000000000000000e+00 -5.4566728460474945e+00 4.5430366298637201e+00 2.5723812476271499e+00 0 0 0
122 122 8 0.0000000000000000e+00 -7.5208053023198165e+00 4.1709899186892541e+00 8.4028714864686194e-01 0 0 0
125 125 8 0.0000000000000000e+00 -8.4775320985848595e+00 3.5406054155632001e+00 3.6349333631886127e+00 0 0 0
77 77 8 0.0000000000000000e+00 -7.5076069079583139e+00 6.1016980847709794e+00 3.5924657366935806e+00 0 -1 0
127 127 8 0.0000000000000000e+00 -6.1334590290600790e+00 4.2237489028560491e+00 5.2027620733656414e+00 0 0 0
106 106 8 0.0000000000000000e+00 -8.7038347475541062e+00 5.7920743954045228e-01 3.6093594381846286e+00 0 0 0
36 36 8 0.0000000000000000e+00 -9.5965810850367852e+00 2.4663499920650844e+00 6.0405569017822538e+00 0 0 -1
121 121 8 0.0000000000000000e+00 -9.2249245604587014e+00 1.9428459682259875e+00 1.1682521792257985e+00 0 0 0
112 112 8 0.0000000000000000e+00 -4.2050948880431314e+00 2.3420417761163952e+00 4.3414054007962255e+00 0 0 0
64 64 8 0.0000000000000000e+00 -1.0229519440928613e+01 5.8966940075030889e+00 3.4496245839711035e+00 0 0 0
60 60 8 0.0000000000000000e+00 -1.0418273841710336e+01 4.4921497247016502e+00 9.4916028518787687e-01 0 0 0
108 108 8 0.0000000000000000e+00 -4.5161404872593938e+00 2.7848355686577611e+00 4.9734936494919957e-01 0 0 0
110 110 8 0.0000000000000000e+00 -6.8074277927596167e+00 1.5087811654079841e+00 5.8551007526396637e+00 0 0 0
126 126 8 0.0000000000000000e+00 -8.9456964913899562e+00 5.1807578267306438e+00 5.9046131031631335e+00 0 0 0
128 128 8 0.0000000000000000e+00 -4.8632995500994269e+00 6.6981657656525355e+00 4.3894953249412128e+00 0 0 0
59 59 8 0.0000000000000000e+00 -1.1191118478862183e+01 3.2096262803247546e+00 3.7838293497600466e+00 0 0 0
73 73 8 0.0000000000000000e+00 -8.6612216923464267e+00 6.8973086109426047e+00 9.1235961182026948e-01 0 -1 0
547 384 9 4.1699999999999998e-01 1.2808064856154502e+00 -2.1074794469941764e+00 -5.0935852516216862e+00 0 -2 2
381 329 10 -8.3399999999999996e-01 -5.6378212061931521e-01 -6.1783595356257539e+00 -3.4341254781117194e+00 0 -1 0
204 270 10 -8.3399999999999996e-01 8.1350907596813116e-01 -3.8711902217292371e+00 -4.2131486559410209e+00 -1 2 -1
319 308 9 4.1699999999999998e-01 -2.0890867671179656e+00 -1.0851154086182770e+00 -6.8754755968665213e+00 0 0 0
705 437 9 4.1699999999999998e-01 1.4821598562480069e+00 -4.3864135750401250e+00 -5.8483042001085748e+00 0 2 -1
206 270 9 4.1699999999999998e-01 9.1101705251449516e-01 -3.3462291487596554e+00 -3.4184468279337503e+00 -1 2 -1
383 329 9 4.1699999999999998e-01 -1.2305257129484914e+00 -5.6228137778566172e+00 -3.0298177109799678e+00 0 -1 0
704 437 9 4.1699999999999998e-01 1.6258793591162650e+00 -5.6804790691448162e+00 -6.6213914631122970e+00 0 2 -1
452 352 9 4.1699999999999998e-01 2.7873666726167130e+00 -4.4820200759630309e+00 -6.7378365601479739e-01 0 3 5
652 420 10 -8.3399999999999996e-01 8.0314043757791964e-01 -4.8297944624255651e+00 -1.1821126447145884e+00 0 3 1
580 396 10 -8.3399999999999996e-01 2.2031140427831915e+00 -6.6039124756288405e+00 -2.7815938613679290e+00 0 4 3
446 350 9 4.1699999999999998e-01 -1.6318165395618571e+00 -3.3135760092683402e+00 -4.6665794491157211e+00 0 1 -1
554 386 9 4.1699999999999998e-01 -2.2868073904833324e+00 -3.8074036824871000e+00 -2.1836103402292038e+00 0 2 0
444 350 10 -8.3399999999999996e-01 -2.0951769331203884e+00 -3.0272449792745668e+00 -3.8792066682565665e+00 0 1 -1
291 299 10 -8.3399999999999996e-01 -3.2397635144509636e+00 -6.4099008222669678e+00 -5.0476593984821552e+00 0 0 1
552 386 10 -8.3399999999999996e-01 -1.9121814944209952e+00 -4.3254197211000935e+00 -1.4708977929667544e+00 0 2 0
687 431 9 4.1699999999999998e-01 -8.2961888422055097e-01 -4.5512216064508610e+00 -6.5892059608932838e+00 0 2 1
654 420 9 4.1699999999999998e-01 -7.7895975421714780e-02 -4.9399111914179290e+00 -1.5402933194368620e+00 0 3 1
685 431 10 -8.3399999999999996e-01 -1.6122316556529661e+00 -4.2222669454115191e+00 -6.1465433093940050e+00 0 2 1
497 367 9 4.1699999999999998e-01 -2.1109256635861229e-01 -1.4539840058210025e+00 -1.0890890758413425e+00 0 2 -1
546 384 10 -8.3399999999999996e-01 1.8330878453832327e+00 -1.3522526885560593e+00 -5.2967165206111524e+00 0 -2 2
257 287 9 4.1699999999999998e-01 2.0084037601128841e+00 -3.4173565815345697e-02 -2.7392000189124062e+00 -1 0 0
92 92 8 0.0000000000000000e+00 -3.1056432124739128e+00 -8.2696155647172098e-01 -2.0675209411978948e+00 0 0 0
703 437 10 -8.3399999999999996e-01 1.9525252347554307e+00 -4.7813383543947356e+00 -6.5827659098986135e+00 0 2 -1
548 384 9 4.1699999999999998e-01 2.2805428501694358e+00 -1.5933876920046375e+00 -6.1080622261562771e+00 0 -2 2
445 350 9 4.1699999999999998e-01 -1.4018630403292640e+00 -2.7482385331075259e+00 -3.2807796246236860e+00 0 1 -1
205 270 9 4.1699999999999998e-01 3.0806929669062910e-01 -4.6354371344623395e+00 -3.9354779310464805e+00 -1 2 -1
553 386 9 4.1699999999999998e-01 -2.2586814515258133e+00 -3.9233530540642167e+00 -6.7407679013767741e-01 0 2 0
686 431 9 4.1699999999999998e-01 -1.9552846124028811e+00 -3.5488508073023506e+00 -6.7343095495346139e+00 0 2 1
653 420 9 4.1699999999999998e-01 6.6712093594565403e-01 -4.3971914768298230e+00 -3.3890585037279752e-01 0 3 1
495 367 10 -8.3399999999999996e-01 -1.3660980650987398e-01 -1.7410148965354280e+00 -1.9994241674430224e+00 0 2 -1
293 299 9 4.1699999999999998e-01 -2.6763353380578856e+00 -5.6569895317425214e+00 -4.8678896948315149e+00 0 0 1
496 367 9 4.1699999999999998e-01 -8.8872688021471191e-02 -9.2879594533791199e-01 -2.5040685375361305e+00 0 2 -1
450 352 10 -8.3399999999999996e-01 3.7191700966316681e+00 -4.3106615364172267e+00 -5.3585993513963359e-01 0 3 5
581 396 9 4.1699999999999998e-01 2.0559925979771272e+00 -6.0364804113759352e+00 -2.0246127707701786e+00 0 4 3
356 320 9 4.1699999999999998e-01 -3.0019829329869570e+00 -4.6231612788070020e-01 -4.7456683582466663e+00 0 2 1
582 396 9 4.1699999999999998e-01 1.4640762384184995e+00 -6.4245983196426391e+00 -3.3632414494767646e+00 0 4 3
255 287 10 -8.3399999999999996e-01 2.5777233325356192e+00 -1.8724384916638570e-01 -1.9848211659239015e+00 -1 0 0
559 388 9 4.1699999999999998e-01 -1.4694739988388541e+00 -7.0669655321085161e+00 -4.7093199315520096e-01 0 0 1
382 329 9 4.1699999999999998e-01 -9.9147247572146924e-01 -7.0283852821893023e+00 -3.5398641017458208e+00 0 -1 0
466 357 9 4.1699999999999998e-01 -4.5014240932042782e-01 -6.8414247425004362e+00 -6.9877929864779285e+00 0 0 0
139 129 1 8.9999999999999997e-02 2.5716268409252940e+00 -2.0973729863303445e+00 1.9415571371565123e+00 0 0 0
249 285 10 -8.3399999999999996e-01 1.7659983868924556e+00 -6.5213144390870426e+00 3.9667399365022673e+00 -1 1 -1
253 286 9 4.1699999999999998e-01 -1.4667519228307988e+00 -3.3964793998163474e+00 3.9461209656508336e+00 -1 1 -2
328 311 9 4.1699999999999998e-01 1.7283445509075754e+00 -4.0263283459924928e+00 5.5791029546827913e+00 0 -1 -1
318 308 10 -8.3399999999999996e-01 -1.8753746298083982e+00 -1.7579136240563704e+00 6.6128822111581647e+00 0 0 -1
250 285 9 4.1699999999999998e-01 2.4376660312108527e+00 -6.9267995176944419e+00 4.5154554269247589e+00 -1 1 -1
134 129 3 -2.8000000000000003e-01 6.4883309266262046e-01 -1.1061785063477947e+00 1.5721651750467620e+00 0 0 0
706 438 10 -8.3399999999999996e-01 1.5007021322009635e+00 -4.7720556854929619e+00 1.8205593201859296e+00 0 2 -1
329 311 9 4.1699999999999998e-01 5.2728379285363047e-01 -3.6491433314909005e+00 4.7376114307734225e+00 0 -1 -1