LAMMPS data file via write_data, version 16 Mar 2018, timestep = 655

714 atoms
12 atom types
403 bonds
8 bond types
260 angles
13 angle types
132 dihedrals
18 dihedral types

-1.9725386000000000e+01 1.9725386000000000e+01 xlo xhi
-7.3970199000000001e+00 7.3970199000000001e+00 ylo yhi
-7.3970199000000001e+00 7.3970199000000001e+00 zlo zhi

Masses

1 1.008
2 1.008
3 12.011
4 12.011
5 15.9994
6 15.9994
7 32.06
8 196.966
9 1.008
10 15.9994
11 35.45
12 22.9898

Pair Coeffs # lj/charmmfsw/coul/long

1 0.028 2.38761 0.028 2.38761
2 0.024 2.38761 0.024 2.38761
3 0.056 3.58141 0.01 3.38542
4 0.078 3.63487 0.01 3.38542
5 0.1 2.93997 0.1 2.93997
6 0.12 3.02906 0.12 3.02906
7 0.47 3.74177 0.47 3.74177
8 5.29 2.62904 5.29 2.62904
9 0.046 0.400014 0.046 0.400014
10 0.1521 3.15057 0.1521 3.15057
11 0.15 4.04468 0.15 4.04468
12 0.0469 2.42993 0.0469 2.42993

Bond Coeffs # harmonic

1 222.5 1.53
2 222.5 1.528
3 309 1.111
4 340 1.43
5 322 1.111
6 450 0.9572
7 540 1.448
8 250 1.575

Angle Coeffs # charmm

1 58.35 113.6 11.16 2.561
2 58 115 8 2.561
3 26.5 110.1 22.53 2.179
4 75.7 110.1 0 0
5 34.6 110.1 22.53 2.179
6 15 109 27 1.9
7 34.6 110.1 22.53 2.179
8 35.5 109 5.4 1.802
9 60 109.5 0 0
10 35.5 108.4 5.4 1.802
11 55 104.52 0 0
12 130 109.47 35 2.45
13 85 98 0 0

Dihedral Coeffs # charmmfsw

1 0.101 2 0 1
2 0.142 3 180 0
3 0.074 4 0 0
4 0.097 5 0 0
5 0.162 2 0 1
6 0.047 3 180 0
7 0.105 4 0 0
8 0.177 5 0 0
9 0.19 3 0 1
10 0 3 0 1
11 0.16 3 0 1
12 0 3 0 1
13 0 3 0 1
14 0.19 3 0 1
15 0.19 3 0 1
16 0.19 3 0 1
17 0.16 3 0 1
18 0 3 0 1

Atoms # full

1 1 8 0.0000000000000000e+00 -1.3353177701240464e+01 -6.2408325102676763e+00 -5.9949614730071366e+00 0 0 0
2 2 8 0.0000000000000000e+00 -1.2955585699432996e+01 -4.5752241085778227e+00 -3.7203762423916760e+00 0 0 0
3 3 8 0.0000000000000000e+00 -1.0937421695456548e+01 -6.6373665025028261e+00 -4.0205532563569868e+00 0 0 0
4 4 8 0.0000000000000000e+00 -1.0875061255956872e+01 -4.8869252979848019e+00 -6.3895065881291391e+00 0 0 0
5 5 8 0.0000000000000000e+00 -1.3714327867602671e+01 -7.2487366873463488e+00 -3.2245836182385887e+00 0 0 0
6 6 8 0.0000000000000000e+00 -1.3414013845271404e+01 -4.9903197648274658e+00 -8.8196171487249198e-01 0 0 0
7 7 8 0.0000000000000000e+00 -1.1811813797887684e+01 -7.3876243592198678e+00 -1.1604809233256126e+00 0 0 0
8 8 8 0.0000000000000000e+00 -1.0542734455059556e+01 -4.9438831368286120e+00 -1.4278144036100116e+00 0 0 0
17 17 8 0.0000000000000000e+00 -1.3446572841635524e+01 -3.4769284573237949e+00 -6.4636495240525971e+00 0 0 0
18 18 8 0.0000000000000000e+00 -1.2490930811249100e+01 -1.8376427690407633e+00 -4.4578621801893146e+00 0 0 0
19 19 8 0.0000000000000000e+00 -1.0307288178942155e+01 -3.7006137476996614e+00 -3.8799916174602811e+00 0 0 0
20 20 8 0.0000000000000000e+00 -1.0161809804479693e+01 -1.9779350716616293e+00 -6.1166097437729707e+00 0 0 0
21 21 8 0.0000000000000000e+00 -1.4778169352127474e+01 -2.5077013449107715e+00 -2.8219926580101720e+00 0 0 0
22 22 8 0.0000000000000000e+00 -1.3357716006437590e+01 5.9560960836525269e-02 -1.9913782481136462e+00 0 0 0
23 23 8 0.0000000000000000e+00 -1.2063396005986837e+01 -2.5697746213145058e+00 -1.8530183576488120e+00 0 0 0
175 260 9 4.1699999999999998e-01 -1.5913181690225608e+01 -2.3349114138221569e+00 -7.0768916191052318e+00 0 0 0
614 407 9 4.1699999999999998e-01 -1.9661046880824749e+01 -5.4263567237644761e+00 -2.8997699257311185e+00 1 0 0
172 259 9 4.1699999999999998e-01 -1.6345290352744556e+01 -4.6878577155875369e+00 -7.2626541837196337e+00 0 0 0
698 435 9 4.1699999999999998e-01 -1.9386235662308223e+01 4.3450357798984074e+00 -1.1988663409099147e+00 1 0 0
650 419 9 4.1699999999999998e-01 -1.9466725766489144e+01 -4.7083967132303861e-01 -2.7221373011999086e+00 1 0 0
209 271 9 4.1699999999999998e-01 -1.9025654326455680e+01 -1.3226313876952787e+00 -6.8289732608030995e+00 0 0 0
176 260 9 4.1699999999999998e-01 -1.7351647205347337e+01 -2.7185324270499289e+00 -7.2842156566973424e+00 0 0 0
177 261 10 -8.3399999999999996e-01 -1.5960551706229920e+01 -7.3318915069800896e+00 -5.1442820377838778e+00 0 0 0
178 261 9 4.1699999999999998e-01 -1.6219483777082669e+01 -6.7295876782497990e+00 -5.8786407002805809e+00 0 0 0
179 261 9 4.1699999999999998e-01 -1.5011139395883564e+01 -7.1571425370484789e+00 -5.1172566275973903e+00 0 0 0
180 262 10 -8.3399999999999996e-01 -1.8674268313601992e+01 -3.8372705452099289e+00 -2.8052184489387781e+00 0 0 0
181 262 9 4.1699999999999998e-01 -1.8100899374071975e+01 -3.3514847144306801e+00 -3.4296594815530819e+00 0 0 0
260 288 9 4.1699999999999998e-01 -1.7033134213198526e+01 -7.1939356534534635e+00 -2.2915759866515915e+00 0 1 0
183 263 10 -8.3399999999999996e-01 -1.7130370991811510e+01 -5.7194366520250179e+00 -1.4165025393771693e+00 0 0 0
184 263 9 4.1699999999999998e-01 -1.6815520251631519e+01 -5.1393335448896265e+00 -6.9210358074714018e-01 0 0 0
185 263 9 4.1699999999999998e-01 -1.7690543221191103e+01 -5.0883964609682089e+00 -1.9137578807724389e+00 0 0 0
649 419 10 -8.3399999999999996e-01 -1.9610257271322972e+01 -1.2532862857582510e+00 -2.1486214655775924e+00 1 0 0
218 274 9 4.1699999999999998e-01 -1.9723943769182071e+01 1.9181120123201783e+00 -3.6640550869211879e+00 0 0 0
30 30 8 0.0000000000000000e+00 -1.2535772570204529e+01 -9.3287026011815899e-01 -7.1612689292832483e+00 0 0 1
207 271 10 -8.3399999999999996e-01 -1.8948677783764342e+01 -2.2445550076004244e+00 -6.4915443909893398e+00 0 0 0
208 271 9 4.1699999999999998e-01 -1.8517538341466707e+01 -2.0749089480220904e+00 -5.6252655177508855e+00 0 0 0
24 24 8 0.0000000000000000e+00 -9.8990588168736444e+00 -9.5267368463794766e-01 -3.4267189549746222e+00 0 0 0
213 273 10 -8.3399999999999996e-01 -1.7362341756535706e+01 -1.7862205179178179e+00 -4.2537907415455427e+00 0 0 0
214 273 9 4.1699999999999998e-01 -1.6539975396349760e+01 -1.6632967817476940e+00 -4.7736315505151792e+00 0 0 0
215 273 9 4.1699999999999998e-01 -1.7236768233541763e+01 -1.1088548896189736e+00 -3.5670229438389631e+00 0 0 0
219 275 10 -8.3399999999999996e-01 -1.7281474923436377e+01 -1.6344547121727622e+00 -7.1150630927082992e-01 0 0 0
220 275 9 4.1699999999999998e-01 -1.6789216046343050e+01 -9.8747188562228139e-01 -1.2604661534892181e+00 0 0 0
221 275 9 4.1699999999999998e-01 -1.8171026238706318e+01 -1.5369511816050139e+00 -1.1135273870575242e+00 0 0 0
33 33 8 0.0000000000000000e+00 -1.1985047815609896e+01 1.7484809959171361e+00 -7.1248171819716370e+00 0 0 0
34 34 8 0.0000000000000000e+00 -1.3767709694601098e+01 2.9430294700274269e+00 -5.1147475529960147e+00 0 0 0
259 288 9 4.1699999999999998e-01 -1.6612382229363487e+01 7.0723122553687894e+00 -3.6388463742944253e+00 0 0 0
258 288 10 -8.3399999999999996e-01 -1.7064908112470935e+01 6.7726915971446147e+00 -2.8211914411344012e+00 0 0 0
37 37 8 0.0000000000000000e+00 -1.1992848169494446e+01 8.4541416579029172e-01 -4.4001896879924374e+00 0 0 0
38 38 8 0.0000000000000000e+00 -1.2603315226319689e+01 2.8253008474399599e+00 -2.5438714435306280e+00 0 0 0
39 39 8 0.0000000000000000e+00 -1.0447330358457704e+01 1.1479725805756018e+00 -1.7270906436424853e+00 0 0 0
40 40 8 0.0000000000000000e+00 -1.0179444872487471e+01 3.0083981544010023e+00 -3.9329032937166413e+00 0 0 0
252 286 10 -8.3399999999999996e-01 -1.9480321120722238e+01 6.2070743244439877e+00 -4.0387085502374624e+00 0 0 0
50 50 8 0.0000000000000000e+00 -1.3539325700310737e+01 5.7714252188861765e+00 -5.5709812983431464e+00 0 0 0
51 51 8 0.0000000000000000e+00 -1.1259650760718730e+01 4.2132853448508065e+00 -6.1527284665127837e+00 0 0 0
52 52 8 0.0000000000000000e+00 -1.1104298171423720e+01 6.9874466465494409e+00 -6.6646408695390598e+00 0 0 0
53 53 8 0.0000000000000000e+00 -1.4631980001495487e+01 4.8284974035405730e+00 -3.0057947090869219e+00 0 0 0
54 54 8 0.0000000000000000e+00 -1.2944965113644617e+01 4.9159188335411415e+00 -7.1236119593338587e-01 0 0 0
55 55 8 0.0000000000000000e+00 -1.0223772297462849e+01 4.0303161002645878e+00 -1.2980922494411418e+00 0 0 0
56 56 8 0.0000000000000000e+00 -1.1725417342364615e+01 5.4283810012182467e+00 -3.3681748846857156e+00 0 0 0
210 272 10 -8.3399999999999996e-01 -1.6347279440656802e+01 1.4035338131170831e+00 -6.1269253678910873e+00 0 0 0
211 272 9 4.1699999999999998e-01 -1.6466259990747613e+01 1.9095886022162210e+00 -5.2973145642834973e+00 0 0 0
212 272 9 4.1699999999999998e-01 -1.6289421595679116e+01 2.1305998028269872e+00 -6.7846519997643577e+00 0 0 0
216 274 10 -8.3399999999999996e-01 -1.9229751356551830e+01 1.0762663982422778e+00 -3.7584532169306781e+00 0 0 0
217 274 9 4.1699999999999998e-01 -1.8326225165178677e+01 1.4347183291785464e+00 -3.8048323635784671e+00 0 0 0
257 287 9 4.1699999999999998e-01 -1.7195280319171374e+01 4.3824390557110933e+00 -9.0891736273617962e-01 0 0 0
222 276 10 -8.3399999999999996e-01 -1.6501747076837454e+01 4.4743197953875241e-01 -2.2512529870406794e+00 0 0 0
223 276 9 4.1699999999999998e-01 -1.6324585418823272e+01 1.1915868842065429e+00 -2.8560387481156222e+00 0 0 0
224 276 9 4.1699999999999998e-01 -1.6796151829924266e+01 9.4609008416529539e-01 -1.4573847564224491e+00 0 0 0
239 281 9 4.1699999999999998e-01 -1.4334453777897449e+01 -9.2860421823564554e-01 -5.8086068484498554e+00 0 0 1
265 290 9 4.1699999999999998e-01 -1.7541507939929733e+01 -7.1905230906506388e+00 -3.6584999998405371e-01 0 1 0
182 262 9 4.1699999999999998e-01 -1.9188658270665272e+01 -3.0759702026750491e+00 -2.4700640458101857e+00 0 0 0
246 284 10 -8.3399999999999996e-01 -1.6539202429528988e+01 4.8001741655810770e+00 -5.4979760422034456e+00 0 0 0
247 284 9 4.1699999999999998e-01 -1.6252918833086174e+01 5.6841591236039770e+00 -5.2010263353498374e+00 0 0 0
248 284 9 4.1699999999999998e-01 -1.6888903415242002e+01 5.0512766948933674e+00 -6.3728071884567195e+00 0 0 0
249 285 10 -8.3399999999999996e-01 -1.6854746154461719e+01 2.7325940910059772e+00 -3.7929246291149932e+00 0 0 0
250 285 9 4.1699999999999998e-01 -1.6709706736957255e+01 3.5000883657398383e+00 -4.4002183015261176e+00 0 0 0
251 285 9 4.1699999999999998e-01 -1.7156385690115584e+01 3.2399774304574067e+00 -3.0039635599471861e+00 0 0 0
57 57 8 0.0000000000000000e+00 -1.4819036164154387e+01 2.7554949306671017e+00 -8.3780280683273090e-01 0 0 0
253 286 9 4.1699999999999998e-01 -1.8563196231547710e+01 6.2647488373447517e+00 -3.7060932154672512e+00 0 0 0
237 281 10 -8.3399999999999996e-01 -1.5286007521665658e+01 -1.0721474029202793e+00 -5.8793870772140462e+00 0 0 1
255 287 10 -8.3399999999999996e-01 -1.7642679417698524e+01 4.3629250119211065e+00 -1.7811064348880705e+00 0 0 0
256 287 9 4.1699999999999998e-01 -1.7412771136091099e+01 5.2619687535545072e+00 -2.1134513392644054e+00 0 0 0
238 281 9 4.1699999999999998e-01 -1.5613413173054166e+01 -1.5022116530839313e-01 -6.0026129245340138e+00 0 0 1
241 282 9 4.1699999999999998e-01 -1.7645895140481780e+01 5.7057933017980678e-01 -7.0518891329870685e+00 0 0 1
659 422 9 4.1699999999999998e-01 -1.9198234859345760e+01 1.4451522846196214e+00 -3.5757703036291960e-01 1 0 0
9 9 8 0.0000000000000000e+00 -1.4665748669486373e+01 7.2173986158450534e+00 -4.8070834268011275e-01 0 -1 0
25 25 8 0.0000000000000000e+00 -1.4206781974971374e+01 -2.3029614809906045e+00 -2.0001281133241299e-02 0 0 0
171 259 10 -8.3399999999999996e-01 -1.6353595919515794e+01 -5.6664765028254562e+00 -7.1900102057647084e+00 0 0 0
188 264 9 4.1699999999999998e-01 -1.7007726574970093e+01 -3.2358446702271344e+00 -1.2231049844566026e-02 0 0 0
675 427 9 4.1699999999999998e-01 -1.9681744594808901e+01 5.4503857221016483e-01 4.3943218935906687e+00 1 0 0
10 10 8 0.0000000000000000e+00 -1.4098414140502248e+01 -4.5274050549738378e+00 2.0032956637113020e+00 0 0 0
11 11 8 0.0000000000000000e+00 -1.1831016368416037e+01 -6.2627114573907843e+00 1.4775778330938674e+00 0 0 0
12 12 8 0.0000000000000000e+00 -1.1673900221568681e+01 -3.4681853495539205e+00 8.7575699000681784e-01 0 0 0
13 13 8 0.0000000000000000e+00 -1.3383735796085926e+01 -6.7205279027140525e+00 3.8186982532315596e+00 0 0 0
14 14 8 0.0000000000000000e+00 -1.3528982418287814e+01 -5.0254062013463745e+00 6.0440719794589191e+00 0 0 0
15 15 8 0.0000000000000000e+00 -1.1070372912139948e+01 -6.2659698009849629e+00 5.7042437941420392e+00 0 0 0
16 16 8 0.0000000000000000e+00 -1.1752337367112002e+01 -4.1035016066066570e+00 3.6774139095507867e+00 0 0 0
205 270 9 4.1699999999999998e-01 -1.9247088227816374e+01 -3.0914384096005429e+00 5.2405066562474651e+00 0 0 0
26 26 8 0.0000000000000000e+00 -1.3269035717946212e+01 -1.7674387760294055e+00 2.6128754010226576e+00 0 0 0
27 27 8 0.0000000000000000e+00 -1.0400342399390221e+01 -1.3590060388189060e+00 2.7076652531719811e+00 0 0 0
28 28 8 0.0000000000000000e+00 -1.1764823705818063e+01 -6.7903534473719496e-01 2.2462627874231822e-01 0 0 0
29 29 8 0.0000000000000000e+00 -1.4085504558768420e+01 -2.2943583882960876e+00 5.4844162724731591e+00 0 0 0
275 293 9 4.1699999999999998e-01 -1.6486321868820742e+01 3.3701131532580630e+00 4.8515253826101548e+00 0 0 0
31 31 8 0.0000000000000000e+00 -1.1165414825708785e+01 -3.0290445389071396e+00 6.2174571829593415e+00 0 0 0
32 32 8 0.0000000000000000e+00 -1.2130986825285172e+01 -4.5851711553942553e-01 4.8570540373241222e+00 0 0 0
189 265 10 -8.3399999999999996e-01 -1.6792862342164479e+01 -5.9756438817063504e+00 2.4959120363306053e+00 0 0 0
190 265 9 4.1699999999999998e-01 -1.6383304497535107e+01 -5.3470523023743786e+00 3.1219914479721136e+00 0 0 0
191 265 9 4.1699999999999998e-01 -1.6803293327226250e+01 -5.4383776780654660e+00 1.6790391714305788e+00 0 0 0
273 293 10 -8.3399999999999996e-01 -1.6684334420745717e+01 3.4659698927560898e+00 3.8981070492490306e+00 0 0 0
193 266 9 4.1699999999999998e-01 -1.9173176069568967e+01 -3.5052415981065490e+00 2.8167154745595688e+00 0 0 0
278 294 9 4.1699999999999998e-01 -1.8025389078671743e+01 6.5479178624282879e+00 6.9977761475665776e+00 0 0 0
195 267 10 -8.3399999999999996e-01 -1.9046901100028034e+01 -6.1383727809185116e+00 4.1164563028957684e+00 0 0 0
196 267 9 4.1699999999999998e-01 -1.8251698348153877e+01 -6.1985358943560964e+00 3.5472457985344978e+00 0 0 0
197 267 9 4.1699999999999998e-01 -1.9530939799021500e+01 -5.4226663953368366e+00 3.6607167305166222e+00 0 0 0
198 268 10 -8.3399999999999996e-01 -1.6219636253612698e+01 -4.3538531851538655e+00 4.6298595498899955e+00 0 0 0
199 268 9 4.1699999999999998e-01 -1.5910974724188293e+01 -3.9691697223388291e+00 5.4687344293199507e+00 0 0 0
200 268 9 4.1699999999999998e-01 -1.6908960557650303e+01 -3.6972600001274754e+00 4.4015402789943296e+00 0 0 0
201 269 10 -8.3399999999999996e-01 -1.5990001196286354e+01 -7.0701410073217907e+00 5.2950226286597175e+00 0 0 0
202 269 9 4.1699999999999998e-01 -1.6073383544026452e+01 -6.2341182015680774e+00 4.8004297806393179e+00 0 0 0
203 269 9 4.1699999999999998e-01 -1.5825870962531122e+01 -6.6899605852418862e+00 6.1812163240073001e+00 0 0 0
272 292 9 4.1699999999999998e-01 -1.6507351161295517e+01 6.8539233598580562e+00 2.5355315383764121e+00 0 0 0
268 291 9 4.1699999999999998e-01 -1.8488367350608193e+01 3.7012609805338710e+00 4.2190501980892332e+00 0 0 0
277 294 9 4.1699999999999998e-01 -1.6776892742130791e+01 6.4144061363059004e+00 6.2027843914730827e+00 0 0 0
225 277 10 -8.3399999999999996e-01 -1.6512005633234399e+01 -1.4487954342839946e+00 1.9241870738701399e+00 0 0 0
226 277 9 4.1699999999999998e-01 -1.6528324444353014e+01 -4.9940582341657364e-01 2.1635342928021286e+00 0 0 0
227 277 9 4.1699999999999998e-01 -1.6769276896475489e+01 -1.3955408827888396e+00 9.7999591142878018e-01 0 0 0
231 279 10 -8.3399999999999996e-01 -1.8065327970952428e+01 -2.4672430607382969e+00 3.8741474236919595e+00 0 0 0
232 279 9 4.1699999999999998e-01 -1.7440487693773910e+01 -2.1739320488858342e+00 3.1696273211257115e+00 0 0 0
233 279 9 4.1699999999999998e-01 -1.8380164363132845e+01 -1.5783300944804288e+00 4.1625572433013005e+00 0 0 0
270 292 10 -8.3399999999999996e-01 -1.6249671247129143e+01 6.0915721809045627e+00 3.0890562303764804e+00 0 0 0
274 293 9 4.1699999999999998e-01 -1.6390700376846883e+01 4.3814585866012328e+00 3.7045785116581240e+00 0 0 0
674 427 9 4.1699999999999998e-01 -1.8757015572314252e+01 1.2288022071973385e-01 5.5319578185903602e+00 1 0 0
41 41 8 0.0000000000000000e+00 -1.4338006327807591e+01 4.5584377386290442e-01 7.8503179024050962e-01 0 0 0
42 42 8 0.0000000000000000e+00 -1.4181312998945589e+01 3.0958393786827667e+00 2.0574722017894160e+00 0 0 0
43 43 8 0.0000000000000000e+00 -1.2119820469702438e+01 9.7473744686521935e-01 2.5061653319907768e+00 0 0 0
44 44 8 0.0000000000000000e+00 -1.2034850901187065e+01 2.4296263206141360e+00 2.1253537725600744e-01 0 0 0
45 45 8 0.0000000000000000e+00 -1.4617752934622182e+01 5.7896011260873126e-01 3.7065518595946494e+00 0 0 0
46 46 8 0.0000000000000000e+00 -1.4422493155927809e+01 8.8390504444157625e-01 6.5002409476571472e+00 0 0 0
276 294 10 -8.3399999999999996e-01 -1.7303513148431936e+01 5.9035598970068346e+00 6.8520403227470217e+00 0 0 0
48 48 8 0.0000000000000000e+00 -1.2459182610899811e+01 2.3753949551169313e+00 4.9728776162779882e+00 0 0 0
174 260 10 -8.3399999999999996e-01 -1.6456033480029589e+01 -2.9916617357042368e+00 7.2354139974255185e+00 0 0 -1
58 58 8 0.0000000000000000e+00 -1.3331313473325258e+01 6.0504966747094384e+00 1.8015125000727039e+00 0 0 0
59 59 8 0.0000000000000000e+00 -1.1553743089184746e+01 3.8517380303782107e+00 2.7924066273070776e+00 0 0 0
60 60 8 0.0000000000000000e+00 -1.0665188704904580e+01 5.7461390494873310e+00 8.5574392744112437e-01 0 0 0
61 61 8 0.0000000000000000e+00 -1.3768692410559115e+01 4.9376573404190482e+00 4.3334112136275227e+00 0 0 0
62 62 8 0.0000000000000000e+00 -1.3414017621830217e+01 6.8475136856285230e+00 6.4714842974458282e+00 0 0 0
63 63 8 0.0000000000000000e+00 -1.1412769363487332e+01 4.9103855578880555e+00 5.9086934190843641e+00 0 0 0
64 64 8 0.0000000000000000e+00 -1.1026304868988470e+01 6.5296479766529005e+00 3.6006947478630615e+00 0 0 0
709 439 10 -8.3399999999999996e-01 -1.9671836152462813e+01 2.6988704263278729e+00 7.1416727792688217e+00 1 0 0
229 278 9 4.1699999999999998e-01 -1.7192291315524155e+01 2.7139834065349113e+00 1.9544134023719498e-01 0 0 0
230 278 9 4.1699999999999998e-01 -1.7418883957837391e+01 1.4415329110362505e+00 9.3321114882712974e-01 0 0 0
234 280 10 -8.3399999999999996e-01 -1.7275108564822151e+01 1.1278738777331738e+00 2.6006306630438139e+00 0 0 0
235 280 9 4.1699999999999998e-01 -1.6976275034144368e+01 1.9664770269308653e+00 3.0212521076310117e+00 0 0 0
236 280 9 4.1699999999999998e-01 -1.7853148405987376e+01 7.7208725658237010e-01 3.3075903052669346e+00 0 0 0
240 282 10 -8.3399999999999996e-01 -1.8453839865986069e+01 2.6245940594671668e-01 7.2840038133370468e+00 0 0 0
269 291 9 4.1699999999999998e-01 -1.9681544553984764e+01 4.6263697248965743e+00 4.3748154336034784e+00 0 0 0
173 259 9 4.1699999999999998e-01 -1.7291319473250045e+01 -5.8645978336025610e+00 7.3689127705154611e+00 0 0 -1
261 289 10 -8.3399999999999996e-01 -1.6788061004361428e+01 4.4996337364613357e+00 7.7838158879327912e-01 0 0 0
262 289 9 4.1699999999999998e-01 -1.6363031389873612e+01 4.6791030369255768e+00 1.6339704596124560e+00 0 0 0
263 289 9 4.1699999999999998e-01 -1.7217694671472582e+01 5.3781458880203923e+00 6.4487360596152854e-01 0 0 0
264 290 10 -8.3399999999999996e-01 -1.7880126440397351e+01 6.9139716592006071e+00 2.3370076865387795e-01 0 0 0
673 427 10 -8.3399999999999996e-01 -1.8861736150696625e+01 3.7477512562535814e-02 4.5594039510942874e+00 1 0 0
266 290 9 4.1699999999999998e-01 -1.8688358891589282e+01 7.3546076779069578e+00 5.6642187880667383e-01 0 0 0
271 292 9 4.1699999999999998e-01 -1.6014164301002822e+01 6.5800611952005550e+00 3.9041544517301645e+00 0 0 0
206 270 9 4.1699999999999998e-01 -1.9641478213627860e+01 -3.0302625315932397e+00 6.7050122234916865e+00 0 0 0
637 415 10 -8.3399999999999996e-01 -1.8825860125806777e+01 -6.4846061714928078e+00 6.8410424312273843e+00 1 0 0
638 415 9 4.1699999999999998e-01 -1.8966949122664346e+01 -6.3265969663577106e+00 5.8811994039967859e+00 1 0 0
47 47 8 0.0000000000000000e+00 -9.9310521180743638e+00 -1.4584417016885118e-01 6.3840736059444954e+00 0 0 0
187 264 9 4.1699999999999998e-01 -1.6267154233224925e+01 -3.3766692565256418e+00 1.2546749891835671e+00 0 0 0
267 291 10 -8.3399999999999996e-01 -1.9403781052228144e+01 3.6995996700776739e+00 4.5629162474206693e+00 0 0 0
243 283 10 -8.3399999999999996e-01 -1.6961458632541952e+01 3.2233520795084436e+00 6.6466657665230411e+00 0 0 -1
186 264 10 -8.3399999999999996e-01 -1.6698105909026555e+01 -3.9442346505737262e+00 5.9343684973950583e-01 0 0 0
245 283 9 4.1699999999999998e-01 -1.7898761436541466e+01 2.9877225109219405e+00 6.7978243180273701e+00 0 0 -1
244 283 9 4.1699999999999998e-01 -1.7022360863345824e+01 4.2000281181144343e+00 6.7219322726494726e+00 0 0 -1
49 49 8 0.0000000000000000e+00 -1.3861989417908497e+01 3.8970015886547626e+00 7.0106138254305685e+00 0 0 -1
242 282 9 4.1699999999999998e-01 -1.9010226821653394e+01 1.0691347229929657e+00 7.3589748418967265e+00 0 0 0
228 278 10 -8.3399999999999996e-01 -1.7472581967389655e+01 1.7937906430165504e+00 1.6185446201492329e-02 0 0 0
639 415 9 4.1699999999999998e-01 -1.9724597312027438e+01 -6.3044975843417204e+00 7.1900933132723877e+00 1 0 0
65 65 8 0.0000000000000000e+00 -8.5604334428439728e+00 -6.7421950314547816e+00 -6.0815778765436432e+00 0 0 0
66 66 8 0.0000000000000000e+00 -8.3251015541938678e+00 -5.6855271227317186e+00 -3.3100814171270692e+00 0 0 0
67 67 8 0.0000000000000000e+00 -5.9953030902182922e+00 -5.8656834274568830e+00 -5.2855272211946831e+00 0 0 0
341 315 9 4.1699999999999998e-01 -1.1813415803234553e+00 -6.6901794956714955e+00 -1.2861857879223135e+00 0 1 0
69 69 8 0.0000000000000000e+00 -9.2953963490712077e+00 6.6596052155203536e+00 -2.1270468764222006e+00 0 -1 0
70 70 8 0.0000000000000000e+00 -7.7923516555180958e+00 -4.5275016441825295e+00 -6.9922023671074485e-01 0 0 0
71 71 8 0.0000000000000000e+00 -6.8309206860972118e+00 -7.0693502190600475e+00 -1.0365257159392967e+00 0 0 0
72 72 8 0.0000000000000000e+00 -4.0588550542310875e+00 -7.0934867838523532e+00 -1.5073847946631513e+00 0 0 0
81 81 8 0.0000000000000000e+00 -8.1036242640613736e+00 -3.9121126167077773e+00 -5.6224648748175738e+00 0 0 0
82 82 8 0.0000000000000000e+00 -7.5971174385129796e+00 -1.0460487645571146e+00 -5.2222106641784478e+00 0 0 0
83 83 8 0.0000000000000000e+00 -5.6726776553904656e+00 -4.8550568223423252e+00 -2.6173765319879085e+00 0 0 0
84 84 8 0.0000000000000000e+00 -5.4859193975333653e+00 -2.9890175357559690e+00 -4.7878565448257477e+00 0 0 0
85 85 8 0.0000000000000000e+00 -7.7659887314185392e+00 -2.8003150559395840e+00 -2.9466652328020997e+00 0 0 0
86 86 8 0.0000000000000000e+00 -9.5819778392741348e+00 -2.3393240803299413e+00 -6.8499853884839235e-01 0 0 0
87 87 8 0.0000000000000000e+00 -6.1201815958319656e+00 -2.3256728834020453e+00 -6.2538580021209789e-01 0 0 0
88 88 8 0.0000000000000000e+00 -5.8064117949837462e+00 -6.6844776441818687e-01 -2.9818757323876932e+00 0 0 0
279 295 10 -8.3399999999999996e-01 -3.5739059890869851e+00 -6.3680292065221247e+00 -7.0515053563085095e+00 0 0 0
280 295 9 4.1699999999999998e-01 -3.0911359336827422e+00 -5.5655365140636066e+00 -6.7617828378541169e+00 0 0 0
281 295 9 4.1699999999999998e-01 -3.6689953905171051e+00 -6.8488121624394465e+00 -6.1985549434000493e+00 0 0 0
282 296 10 -8.3399999999999996e-01 -2.3798070911703344e+00 -3.9227379995209484e+00 -6.7853102286177895e+00 0 0 0
396 334 10 -8.3399999999999996e-01 -3.1862591069587493e-01 1.2871195895863401e+00 -2.6491324252145372e+00 0 0 0
284 296 9 4.1699999999999998e-01 -2.5063185524094704e+00 -3.2173829502768738e+00 -6.1119642400679268e+00 0 0 0
285 297 10 -8.3399999999999996e-01 -2.3650868804130929e+00 -5.3873956974550703e+00 -3.6277497448933520e+00 0 0 0
313 306 9 4.1699999999999998e-01 -7.4026931389889450e-01 -6.1845035603653864e-01 -2.2524516915712867e+00 0 0 0
287 297 9 4.1699999999999998e-01 -2.7850791297959017e+00 -4.7380953759704685e+00 -3.0256910606649741e+00 0 0 0
288 298 10 -8.3399999999999996e-01 -2.9573311036957572e+00 -3.4669059957216875e+00 -1.7523807787544661e+00 0 0 0
289 298 9 4.1699999999999998e-01 -2.3592411666571782e+00 -2.7073646453875155e+00 -1.9341301727552165e+00 0 0 0
290 298 9 4.1699999999999998e-01 -3.6784694139229539e+00 -3.0380713291224195e+00 -1.2783410440806993e+00 0 0 0
291 299 10 -8.3399999999999996e-01 -1.6878495662923894e+00 -5.3757282128683821e+00 -1.3936185734910703e-01 0 0 0
292 299 9 4.1699999999999998e-01 -2.1516045481031107e+00 -4.7920649236308011e+00 -7.7212630218229505e-01 0 0 0
118 118 8 0.0000000000000000e+00 -7.8570492019319671e+00 5.2522233267748266e+00 -1.5768682950649432e-01 0 0 0
306 304 10 -8.3399999999999996e-01 -2.6377777213565783e+00 -1.6076123204633108e+00 -5.4224245272246918e+00 0 0 0
307 304 9 4.1699999999999998e-01 -1.8411213353180413e+00 -1.1285367858677489e+00 -5.7201593280979059e+00 0 0 0
308 304 9 4.1699999999999998e-01 -2.9880010733960201e+00 -9.6928119032834370e-01 -4.7720008705641863e+00 0 0 0
312 306 10 -8.3399999999999996e-01 -1.3625808358785616e+00 -1.3452688460032787e+00 -2.4545291899101023e+00 0 0 0
35 35 8 0.0000000000000000e+00 -9.6178382166846621e+00 8.7707888629219877e-01 -5.7972374325661225e+00 0 0 0
314 306 9 4.1699999999999998e-01 -2.0405082642655636e+00 -8.0783168956007945e-01 -2.9154507779418291e+00 0 0 0
369 325 10 -8.3399999999999996e-01 -2.3559773247830171e-01 -3.5003209964053221e+00 -3.9007231402232683e+00 0 0 0
98 98 8 0.0000000000000000e+00 -7.9855645553482555e+00 1.3279734342790908e+00 -3.5284062878652414e+00 0 0 0
99 99 8 0.0000000000000000e+00 -5.7078716273811310e+00 1.1865380947910373e+00 -5.2219972288325573e+00 0 0 0
311 305 9 4.1699999999999998e-01 -1.1381786597780343e+00 6.7368739158365470e-02 -7.1131753730863592e+00 0 0 0
101 101 8 0.0000000000000000e+00 -7.9908392029895099e+00 -2.5929083556107946e-01 -1.2735176608511560e+00 0 0 0
102 102 8 0.0000000000000000e+00 -7.9637587971483947e+00 2.4161859020508247e+00 -6.6227197200073296e-01 0 0 0
339 315 10 -8.3399999999999996e-01 -9.8426560600167567e-01 -7.2033943586890574e+00 -2.0974426648081996e+00 0 1 0
104 104 8 0.0000000000000000e+00 -5.5812563790011893e+00 2.1949240601803131e+00 -2.2550702697265805e+00 0 0 0
113 113 8 0.0000000000000000e+00 -7.9781052486781192e+00 3.2514635373392435e+00 -5.7552373755847608e+00 0 0 0
114 114 8 0.0000000000000000e+00 -9.2535237438670919e+00 5.6867395667477876e+00 -4.7587041459941943e+00 0 0 0
115 115 8 0.0000000000000000e+00 -5.4217423279597314e+00 4.0061625107483101e+00 -4.4622995489949284e+00 0 0 0
116 116 8 0.0000000000000000e+00 -6.5679852028017720e+00 5.8275657904786042e+00 -6.2649068808006554e+00 0 0 0
117 117 8 0.0000000000000000e+00 -7.8046898203347661e+00 4.1520935926831006e+00 -2.8826159498720956e+00 0 0 0
286 297 9 4.1699999999999998e-01 -1.6823825784112914e+00 -4.8158314215881965e+00 -4.0305421285182499e+00 0 0 0
119 119 8 0.0000000000000000e+00 -5.4198936091868983e+00 5.1499456304617395e+00 -1.7030314994710631e+00 0 0 0
120 120 8 0.0000000000000000e+00 -6.7775732659407000e+00 6.7308871851739678e+00 -3.6474087396685260e+00 0 0 0
309 305 10 -8.3399999999999996e-01 -5.3660871862003856e-01 -3.4969677064274306e-02 -6.3438708431311124e+00 0 0 0
310 305 9 4.1699999999999998e-01 -3.4766070198370691e-01 9.0409840069905356e-01 -6.1259801958739546e+00 0 0 0
338 314 9 4.1699999999999998e-01 -2.7457964038321729e+00 5.1476800332550647e+00 -1.6891703226686687e+00 0 0 0
315 307 10 -8.3399999999999996e-01 -3.1859320693872517e+00 3.3635063949590260e-01 -3.6096482601726327e+00 0 0 0
316 307 9 4.1699999999999998e-01 -2.8270907473763778e+00 1.2453655938102464e+00 -3.7404461865869809e+00 0 0 0
317 307 9 4.1699999999999998e-01 -4.0524623190719060e+00 5.5033304323123122e-01 -3.2461915552633149e+00 0 0 0
324 310 10 -8.3399999999999996e-01 -2.8505412349709007e+00 3.9098496773558780e+00 -6.2527457086632685e+00 0 0 0
325 310 9 4.1699999999999998e-01 -1.9956475755098770e+00 4.3832420330313910e+00 -6.3212775107171915e+00 0 0 0
326 310 9 4.1699999999999998e-01 -3.4454180548765811e+00 4.6113580697682641e+00 -6.6106768059181542e+00 0 0 0
327 311 10 -8.3399999999999996e-01 -4.0304787230521666e-01 5.0839987637502233e+00 -6.6184312675336594e+00 0 0 0
340 315 9 4.1699999999999998e-01 -1.3955018857223234e+00 -6.6088566119619383e+00 -2.7595285693191847e+00 0 1 0
371 325 9 4.1699999999999998e-01 -6.4590933569816755e-01 -2.8301709144484550e+00 -3.3180232189054144e+00 0 0 0
330 312 10 -8.3399999999999996e-01 -2.4168968150286467e+00 2.8852129091729455e+00 -3.7717157475954992e+00 0 0 0
331 312 9 4.1699999999999998e-01 -2.4624722343073282e+00 3.7583613035968249e+00 -3.3189145050720992e+00 0 0 0
332 312 9 4.1699999999999998e-01 -2.6189629104784364e+00 3.1794143997609297e+00 -4.6898994411912476e+00 0 0 0
333 313 10 -8.3399999999999996e-01 -3.6244486888248644e+00 7.1179537471698735e+00 -4.6086995694550055e+00 0 0 0
334 313 9 4.1699999999999998e-01 -3.2494461199740687e+00 -6.8970960106320938e+00 -4.1550833843585639e+00 0 1 0
335 313 9 4.1699999999999998e-01 -3.3978544105224495e+00 6.3926729504075634e+00 -4.0012724599173621e+00 0 0 0
336 314 10 -8.3399999999999996e-01 -2.4977944041895062e+00 5.3407065899193116e+00 -2.6230372539258795e+00 0 0 0
337 314 9 4.1699999999999998e-01 -1.8791895618007592e+00 6.0807537335576507e+00 -2.4675924514292307e+00 0 0 0
111 111 8 0.0000000000000000e+00 -5.3490074815369715e+00 -1.2157175019472202e+00 -7.0600154386892129e+00 0 0 1
398 334 9 4.1699999999999998e-01 -1.0659372236906239e+00 1.8306743427869778e+00 -2.9586358322556778e+00 0 0 0
410 338 9 4.1699999999999998e-01 -6.8242549131157459e-02 3.4329461834692920e+00 -6.1234906079660005e+00 0 0 0
73 73 8 0.0000000000000000e+00 -9.3003249821789193e+00 -6.6796324006461951e+00 3.5900223004335940e-01 0 0 0
74 74 8 0.0000000000000000e+00 -9.5340177200721126e+00 -5.8664660837945828e+00 3.2710143053294809e+00 0 0 0
75 75 8 0.0000000000000000e+00 -6.9940973293462116e+00 -5.9998869057925015e+00 1.7442192993479622e+00 0 0 0
343 316 9 4.1699999999999998e-01 -3.1409842810432136e+00 4.1220542755321850e+00 5.1569805826386095e-01 0 0 0