LAMMPS data file via write_data, version 16 Mar 2018, timestep = 5000

281 atoms
12 atom types
157 bonds
8 bond types
137 angles
13 angle types
132 dihedrals
18 dihedral types

-8.8695013191479273e+00 8.8695013191479273e+00 xlo xhi
-6.6521259893609122e+00 6.6521259893609122e+00 ylo yhi
-6.6521259893609122e+00 6.6521259893609122e+00 zlo zhi

Masses

1 1.008
2 1.008
3 12.011
4 12.011
5 15.9994
6 15.9994
7 32.06
8 196.966
9 1.008
10 15.9994
11 35.45
12 22.9898

Pair Coeffs # lj/charmmfsw/coul/long

1 0.028 2.38761 0.028 2.38761
2 0.024 2.38761 0.024 2.38761
3 0.056 3.58141 0.01 3.38542
4 0.078 3.63487 0.01 3.38542
5 0.1 2.93997 0.1 2.93997
6 0.12 3.02906 0.12 3.02906
7 0.47 3.74177 0.47 3.74177
8 5.29 2.62904 5.29 2.62904
9 0.046 0.400014 0.046 0.400014
10 0.1521 3.15057 0.1521 3.15057
11 0.15 4.04468 0.15 4.04468
12 0.0469 2.42993 0.0469 2.42993

Bond Coeffs # harmonic

1 222.5 1.53
2 222.5 1.528
3 309 1.111
4 340 1.43
5 322 1.111
6 450 0.9572
7 540 1.448
8 250 1.575

Angle Coeffs # charmm

1 58.35 113.6 11.16 2.561
2 58 115 8 2.561
3 26.5 110.1 22.53 2.179
4 75.7 110.1 0 0
5 34.6 110.1 22.53 2.179
6 15 109 27 1.9
7 34.6 110.1 22.53 2.179
8 35.5 109 5.4 1.802
9 60 109.5 0 0
10 35.5 108.4 5.4 1.802
11 55 104.52 0 0
12 130 109.47 35 2.45
13 85 98 0 0

Dihedral Coeffs # charmmfsw

1 0.101 2 0 1
2 0.142 3 180 0
3 0.074 4 0 0
4 0.097 5 0 0
5 0.162 2 0 1
6 0.047 3 180 0
7 0.105 4 0 0
8 0.177 5 0 0
9 0.19 3 0 1
10 0 3 0 1
11 0.16 3 0 1
12 0 3 0 1
13 0 3 0 1
14 0.19 3 0 1
15 0.19 3 0 1
16 0.19 3 0 1
17 0.16 3 0 1
18 0 3 0 1

Atoms # full

1 1 8 0.0000000000000000e+00 -5.9035448464491198e+00 -5.5301222851450227e+00 -5.6681579599980605e+00 0 0 0
2 2 8 0.0000000000000000e+00 -4.3470425427771833e+00 -4.7576536951318378e+00 -3.2058825855334754e+00 0 0 0
4 4 8 0.0000000000000000e+00 -3.8720109233159894e+00 -3.7236504729647435e+00 -5.7649957908650311e+00 0 0 0
5 5 8 0.0000000000000000e+00 -6.3798906467644674e+00 -6.5335739361378273e+00 -2.8412215733532786e+00 0 0 0
6 6 8 0.0000000000000000e+00 -5.9252877448760604e+00 -4.3476640044721506e+00 -9.0973136639558838e-01 0 0 0
7 7 8 0.0000000000000000e+00 -2.8574996230808276e+00 -6.0877176561011224e+00 -1.0865001561674559e+00 0 0 0
8 8 8 0.0000000000000000e+00 -2.9192426557492670e+00 -3.2474313449520160e+00 -1.3095509980513649e+00 0 0 0
17 17 8 0.0000000000000000e+00 -6.6250854209415344e+00 -2.9589821277146600e+00 -6.4661559109576077e+00 0 0 0
18 18 8 0.0000000000000000e+00 -7.6863678040127379e+00 -1.0171254790193114e+00 -4.4925736455175915e+00 0 0 0
19 19 8 0.0000000000000000e+00 -4.7448551023504901e+00 -1.6095987318268321e+00 -4.1642976082895684e+00 0 0 0
20 20 8 0.0000000000000000e+00 -2.5443374945074124e+00 -1.0092756388401272e+00 -5.8333306745720179e+00 0 0 0
21 21 8 0.0000000000000000e+00 -6.9483836884946122e+00 -3.6784248920217486e+00 -3.7675152125250286e+00 0 0 0
22 22 8 0.0000000000000000e+00 -6.4832267802296020e+00 -1.6235196241859384e+00 -1.8199814383868986e+00 0 0 0
130 138 9 4.1699999999999998e-01 -9.9186666575639304e-01 5.0113593807347101e-01 -1.7811236433665965e+00 0 0 0
250 179 9 4.1699999999999998e-01 -8.5659986107488173e+00 4.3129552993632272e+00 6.2509241475641213e+00 1 0 -1
231 173 10 -8.3399999999999996e-01 -8.1519401420732347e+00 -2.4664773715815622e+00 6.2587281082827673e-01 1 0 0
115 133 9 4.1699999999999998e-01 -3.2845864008942272e-01 -3.8242259772228633e+00 -2.5650867881648329e+00 0 0 0
229 172 9 4.1699999999999998e-01 -8.2219834785503565e+00 9.7149544560467582e-01 -1.6921065543819571e+00 1 0 0
128 138 10 -8.3399999999999996e-01 -6.5807104475369727e-01 1.1093838031531682e+00 -1.1216482871843230e+00 0 0 0
64 64 8 0.0000000000000000e+00 -2.5454130531313135e+00 5.1170414288780401e+00 3.9291920228717183e+00 0 0 0
145 143 9 4.1699999999999998e-01 -4.8388874220121991e-01 4.7063678099368724e+00 -6.4324670940389694e+00 0 -1 0
163 149 9 4.1699999999999998e-01 -6.6387338990843148e-02 5.3112866811638826e+00 4.9044498662271865e+00 0 -1 0
69 65 6 -6.5000000000000002e-01 -1.0324737570254960e-01 1.3573280406722139e+00 5.6357410818156657e+00 0 0 0
123 136 9 4.1699999999999998e-01 -1.5911576219124495e+00 -4.4464768379187358e+00 -3.9828656180100959e+00 0 0 0
122 136 10 -8.3399999999999996e-01 -1.4501208840717652e+00 -3.5547198402499824e+00 -4.3009401172398078e+00 0 0 0
124 136 9 4.1699999999999998e-01 -1.6760890724559250e+00 -3.5928649146425111e+00 -5.2303359408245509e+00 0 0 0
138 141 9 4.1699999999999998e-01 -2.9015474739805036e-01 6.9458206148574853e-01 -6.0308409697265866e+00 0 0 0
58 58 8 0.0000000000000000e+00 -4.6998744677465476e+00 6.5387978278280725e+00 2.9163235245813004e+00 0 0 0
24 24 8 0.0000000000000000e+00 -3.7300222658911828e+00 -3.6373435727111580e-01 -1.6258558832263246e+00 0 0 0
47 47 8 0.0000000000000000e+00 -2.1130451236142846e+00 -5.0768397456105685e-01 4.5483396853277052e+00 0 0 0
110 132 10 -8.3399999999999996e-01 -1.5328030163585202e+00 -6.2663453896994374e+00 -4.0409946632248701e+00 0 0 0
208 165 9 4.1699999999999998e-01 -7.7935846182608435e+00 -5.6483916652243860e+00 5.9424857310899171e-01 1 0 0
48 48 8 0.0000000000000000e+00 -2.9669464843955140e+00 2.2123175477845427e+00 3.5105951096386194e+00 0 0 0
112 132 9 4.1699999999999998e-01 -1.9374437052601712e+00 6.5318463492300483e+00 -3.3363935924570196e+00 0 -1 0
11 11 8 0.0000000000000000e+00 -1.9921150702258013e+00 6.2794702494279226e+00 1.3100213257779147e+00 0 -1 0
165 150 9 4.1699999999999998e-01 -8.4133900221239770e+00 -5.5390092069818548e+00 4.3461737797611830e+00 1 0 0
42 42 8 0.0000000000000000e+00 -7.8587142572972404e+00 2.5912703529101764e+00 3.4986809385081026e+00 0 0 0
46 46 8 0.0000000000000000e+00 -5.5520372068976096e+00 1.1474224043539794e+00 4.6092748001367356e+00 0 0 0
166 150 9 4.1699999999999998e-01 -7.1410362168586659e+00 -4.7185857061412531e+00 4.3377625488178397e+00 1 0 0
133 139 9 4.1699999999999998e-01 -6.2562237168687140e-01 -5.0188825162374240e-01 -3.7207872959478405e+00 0 0 0
201 163 10 -8.3399999999999996e-01 -8.7444803499873451e+00 -4.8194816551714297e+00 -1.0681623631983497e+00 1 0 0
3 3 8 0.0000000000000000e+00 -4.2800691022889641e+00 5.8248078357773378e+00 -4.7941035044734788e+00 0 -1 0
44 44 8 0.0000000000000000e+00 -3.0979604712111053e+00 1.5198637931978736e+00 6.6042740609228723e-01 0 0 0
129 138 9 4.1699999999999998e-01 -1.0010165215747104e+00 1.9628172460423192e+00 -1.3868505899536085e+00 0 0 0
33 33 8 0.0000000000000000e+00 -5.4773315812745142e+00 3.8119122893870649e-01 -5.8576535470892743e+00 0 0 0
34 34 8 0.0000000000000000e+00 -5.5106662539307152e+00 3.4405629486462255e+00 -3.7365490928678513e+00 0 0 0
35 35 8 0.0000000000000000e+00 -3.3672693318684583e+00 1.1649612905905524e+00 -4.2206787776495887e+00 0 0 0
37 37 8 0.0000000000000000e+00 -7.8709273480247992e+00 1.8962697040138936e+00 -5.0444000538158829e+00 0 0 0
38 38 8 0.0000000000000000e+00 -8.1611145274794783e+00 3.2067683472041475e+00 -2.3469000681310384e+00 0 0 0
39 39 8 0.0000000000000000e+00 -6.0869125921093481e+00 8.8329522595442711e-01 -3.1538291417769444e+00 0 0 0
40 40 8 0.0000000000000000e+00 -3.8721989126341407e+00 2.3936813583994594e+00 -1.7832114605596496e+00 0 0 0
49 49 8 0.0000000000000000e+00 -5.6997540384948513e+00 3.1262878808316890e+00 6.5723892796439420e+00 0 0 -1
50 50 8 0.0000000000000000e+00 -7.2441498133579820e+00 5.2646006370983960e+00 -4.9636089516059370e+00 0 0 0
51 51 8 0.0000000000000000e+00 -2.2247052649275680e+00 3.7782152865480638e+00 -3.6089329746522547e+00 0 0 0
53 53 8 0.0000000000000000e+00 -7.9883397102754348e+00 5.6738104082697030e+00 -7.3634474952583684e-01 0 0 0
55 55 8 0.0000000000000000e+00 -5.9587705047336073e+00 3.7132992648192564e+00 -5.8228909852274935e-01 0 0 0
56 56 8 0.0000000000000000e+00 -4.1743230435505181e+00 5.0822154390707732e+00 -2.0973544062145146e+00 0 0 0
62 62 8 0.0000000000000000e+00 -5.3716763940203194e+00 5.8642867027457717e+00 5.7136550307500036e+00 0 0 0
45 45 8 0.0000000000000000e+00 -5.5474895663427031e+00 2.1602943341663776e+00 1.9179821081646198e+00 0 0 0
214 167 9 4.1699999999999998e-01 -8.6420151655942128e+00 -5.6806943005926662e+00 6.6175454089975334e+00 1 0 0
9 9 8 0.0000000000000000e+00 -5.3647849598705353e+00 6.3985116026833380e+00 8.5679214397847758e-02 0 -1 0
60 60 8 0.0000000000000000e+00 -1.9585297773069117e+00 4.0425699427250548e+00 -8.0344965584727479e-01 0 0 0
28 28 8 0.0000000000000000e+00 -5.9672613031219033e+00 7.5094236204398346e-01 -3.4304052558025422e-01 0 0 0
36 36 8 0.0000000000000000e+00 -3.2327454397794231e+00 1.4628836524796851e+00 6.2057231175774925e+00 0 0 -1
232 173 9 4.1699999999999998e-01 -8.4923854887320047e+00 -3.0850523470511000e+00 -2.0467569876294611e-02 1 0 0
61 61 8 0.0000000000000000e+00 -5.1581055060881358e+00 3.8789824459339934e+00 3.9607673385871580e+00 0 0 0
137 141 10 -8.3399999999999996e-01 -1.0721872865507898e-01 4.3328383312379160e-01 -5.1283167320591438e+00 0 0 0
59 59 8 0.0000000000000000e+00 -1.0700856904474652e+00 3.5740804289283146e+00 1.8765430004045003e+00 0 0 0
57 57 8 0.0000000000000000e+00 -3.8651477523887632e+00 4.2515190114436789e+00 1.4016717303399444e+00 0 0 0
54 54 8 0.0000000000000000e+00 -6.8837290542582146e+00 4.7542483014814687e+00 1.8246341443133760e+00 0 0 0
233 173 9 4.1699999999999998e-01 -8.1202342967961361e+00 -1.6290915341129493e+00 1.6319311207059428e-01 1 0 0
143 143 10 -8.3399999999999996e-01 -2.0338029800585034e-01 5.2069839809222147e+00 -5.6663143774622444e+00 0 -1 0
67 65 6 -6.5000000000000002e-01 -2.0755648425416240e-01 3.7850715550985301e+00 5.3024031458177285e+00 0 0 0
209 165 9 4.1699999999999998e-01 -8.0660435083529993e+00 -4.5639404268458126e+00 1.6149262452902056e+00 1 0 0
207 165 10 -8.3399999999999996e-01 -7.8049666634176518e+00 -5.4815583649432726e+00 1.5367614585220233e+00 1 0 0
132 139 9 4.1699999999999998e-01 -1.4252475515655307e+00 -1.7613652520106022e+00 -3.4631740298531368e+00 0 0 0
164 150 10 -8.3399999999999996e-01 -7.7879376591823188e+00 -5.1061639631336639e+00 4.9273348198182676e+00 1 0 0
154 146 9 4.1699999999999998e-01 -5.1700145659966701e-01 -5.4264367259212936e+00 -6.0524516261801784e+00 0 0 1
43 43 8 0.0000000000000000e+00 -9.0910898678928209e-01 7.3266921258770346e-01 2.3002308198156216e+00 0 0 0
111 132 9 4.1699999999999998e-01 -1.1983890370521086e+00 6.3782856203294704e+00 -4.6487453057177950e+00 0 -1 0
63 63 8 0.0000000000000000e+00 -3.1761544145821912e+00 4.1583418229412024e+00 6.6418298429729807e+00 0 0 0
23 23 8 0.0000000000000000e+00 -2.2209258342086189e+00 -1.2915169863203735e+00 6.4494585528812554e-01 0 0 0
41 41 8 0.0000000000000000e+00 -8.3482022750096796e+00 2.3915791229423720e+00 5.8444086803630757e-01 0 0 0
52 52 8 0.0000000000000000e+00 -2.7569646187417867e+00 -6.2514144962064195e+00 6.3869607991419128e+00 0 1 -1
10 10 8 0.0000000000000000e+00 -3.9367130051793380e+00 -4.6610524356318974e+00 1.1113382745026454e+00 0 0 0
12 12 8 0.0000000000000000e+00 -1.2049515326033484e+00 -4.1430014083110001e+00 9.8463201035565895e-01 0 0 0
13 13 8 0.0000000000000000e+00 -2.1657930075590857e+00 -5.2532137929465392e+00 3.4936218989032630e+00 0 0 0
14 14 8 0.0000000000000000e+00 -4.6963571857810038e+00 -4.5492907426308289e+00 4.9718504344923433e+00 0 0 0
15 15 8 0.0000000000000000e+00 -2.0277945718905466e+00 -3.1700889404865409e+00 5.4777798339817148e+00 0 0 0
16 16 8 0.0000000000000000e+00 -3.3340281807873282e+00 -2.7226269382504706e+00 3.0765334369941639e+00 0 0 0
25 25 8 0.0000000000000000e+00 -5.0819908748303781e+00 -2.0140486809765550e+00 6.5953353765936562e-01 0 0 0
26 26 8 0.0000000000000000e+00 -7.1527633796260135e+00 -1.8893174461375040e-01 2.2239983983095302e+00 0 0 0
27 27 8 0.0000000000000000e+00 -5.5233764578665401e-01 -2.1791439147691003e+00 2.8216311405004850e+00 0 0 0
29 29 8 0.0000000000000000e+00 -6.1394351483988334e+00 -2.7224154731676391e+00 3.2744807361940866e+00 0 0 0
30 30 8 0.0000000000000000e+00 -7.4567713126335882e+00 -6.0155307504098143e-01 5.2484794201235045e+00 0 0 0
31 31 8 0.0000000000000000e+00 -4.6374019933435591e+00 -1.5784734204606812e+00 5.5324916118298271e+00 0 0 0
32 32 8 0.0000000000000000e+00 -4.1870615483197753e+00 -1.4527601423243564e-01 2.6358206695288873e+00 0 0 0
131 139 10 -8.3399999999999996e-01 -1.0974584411715949e+00 -9.7156385893795694e-01 -3.0329874139486410e+00 0 0 0
203 163 9 4.1699999999999998e-01 -8.6441389004010531e+00 -4.1864000062371574e+00 -1.7791004492313167e+00 1 0 0
206 164 9 4.1699999999999998e-01 -8.7916346825685192e+00 6.5068665572624438e+00 2.4539615100514487e+00 1 -1 0
205 164 9 4.1699999999999998e-01 -8.6750540357008479e+00 5.5999146751425988e+00 3.6605641619456000e+00 1 -1 0
102 65 1 8.9999999999999997e-02 7.8295233629265102e+00 -6.2729593724802886e+00 4.5212233210133590e-01 0 0 0
169 151 9 4.1699999999999998e-01 2.8231208611920149e+00 -6.2468209140666922e+00 6.3018518680202069e+00 0 0 0
168 151 9 4.1699999999999998e-01 2.9464352670278142e+00 -4.9089819081522483e+00 -6.3045242738344562e+00 0 0 1
92 65 1 8.9999999999999997e-02 5.4834098180479831e+00 -2.8661361294326375e+00 -1.3231690833645260e+00 0 0 0
96 65 1 8.9999999999999997e-02 7.1882985364010121e+00 -3.6043915647694931e+00 4.6018783561643151e-01 0 0 0
242 176 9 4.1699999999999998e-01 4.8569007408216027e+00 2.7109321004208331e+00 -2.7412602641261632e+00 0 0 1
218 168 9 4.1699999999999998e-01 5.1719907233021960e+00 -6.5582796911879333e+00 -3.7242869098376987e+00 0 0 1
98 65 1 8.9999999999999997e-02 6.4109341615597657e+00 -4.9763548641957014e+00 -1.3073548295686761e+00 0 0 0
104 65 2 8.9999999999999997e-02 7.4301275493036716e+00 5.4536672374638639e+00 -9.8712553581507212e-01 0 -1 0
94 65 3 -1.7999999999999999e-01 6.1100519652204106e+00 -3.8711968765034181e+00 4.8476402346669367e-01 0 0 0
100 65 3 -1.7999999999999999e-01 6.7302880694906744e+00 -6.4036022399324448e+00 3.5715306492116827e-01 0 0 0
216 168 10 -8.3399999999999996e-01 4.6601188788130994e+00 -6.5617540912715988e+00 -4.5331558178207105e+00 0 0 1
151 145 9 4.1699999999999998e-01 2.6503298555926609e+00 -4.0586522543073729e+00 -3.9175152137184570e+00 0 0 0
217 168 9 4.1699999999999998e-01 4.0233497382468215e+00 -5.8565010696757209e+00 -4.4172381543542079e+00 0 0 1
186 157 9 4.1699999999999998e-01 1.8647933741105831e+00 -1.1830102887642049e+00 1.6584926432874836e+00 0 0 -1
160 148 9 4.1699999999999998e-01 1.4890655127413996e+00 -4.7501018688116767e+00 1.1040266767425182e+00 0 0 0
222 170 10 -8.3399999999999996e-01 6.0038293279936603e+00 -1.7671665294742605e+00 -4.3715856179671357e+00 0 0 0
260 182 9 4.1699999999999998e-01 6.1490686317460348e+00 4.6111003290567156e+00 -3.7555408769283494e+00 0 0 0
224 170 9 4.1699999999999998e-01 5.1611088113930101e+00 -1.3245419802809018e+00 -4.4725696278903762e+00 0 0 0
227 171 9 4.1699999999999998e-01 7.3327749745838542e+00 -2.0987164191750356e+00 -2.5969938382205555e+00 0 0 0
116 134 10 -8.3399999999999996e-01 7.7391263480975248e-01 -6.4831389973887363e+00 2.0173246402194076e+00 0 0 0
278 188 9 4.1699999999999998e-01 5.9579700383513234e+00 -1.5225615984030583e+00 3.1971569929599069e+00 0 0 0
158 148 10 -8.3399999999999996e-01 1.9805548934659036e+00 -4.0034402274411889e+00 7.6163968849291130e-01 0 0 0
251 179 9 4.1699999999999998e-01 8.2058850282455733e+00 5.3814033113331901e+00 5.7870850307604647e+00 0 0 -1
204 164 10 -8.3399999999999996e-01 8.5613519154322955e+00 6.3368416484665575e+00 3.3132480370273507e+00 0 -1 0
240 176 10 -8.3399999999999996e-01 5.5465038845087768e+00 3.1140738059908264e+00 -2.2137960518059723e+00 0 0 1
119 135 10 -8.3399999999999996e-01 2.6979524532285364e+00 5.2262003620354465e+00 6.3319689002702964e+00 0 -1 0
120 135 9 4.1699999999999998e-01 2.7936700510940700e+00 4.2745008840592407e+00 6.2945513384893834e+00 0 -1 0
127 137 9 4.1699999999999998e-01 3.5816015144437685e+00 -4.1426922723707396e+00 -1.3969321443612053e+00 0 0 0
246 178 10 -8.3399999999999996e-01 7.4048393563036310e+00 1.2526179022044124e+00 -3.6423379404787291e+00 0 0 0
87 65 1 8.9999999999999997e-02 4.8589077291829241e+00 -3.0454805980635236e-01 -1.3979649630612974e+00 0 0 0
248 178 9 4.1699999999999998e-01 6.9634644566230950e+00 2.0952700123984256e+00 -3.7491910255416960e+00 0 0 0
279 189 10 -8.3399999999999996e-01 5.8278814291212502e+00 2.3070565509341980e+00 -5.8263739505467615e+00 0 0 1
280 189 9 4.1699999999999998e-01 5.4301387837415458e+00 1.5900509162826504e+00 -5.3324128631150556e+00 0 0 1
90 65 1 8.9999999999999997e-02 7.2463200373101717e+00 -1.1868933661894117e+00 -2.4106540448843017e-01 0 0 0
281 189 9 4.1699999999999998e-01 5.3099028708841711e+00 2.3614989562315118e+00 -6.6295103850837807e+00 0 0 1
86 65 1 8.9999999999999997e-02 6.0871014557411804e+00 7.4010602023791705e-01 -5.9740572157638283e-01 0 0 0
85 65 3 -1.7999999999999999e-01 5.3463392842113997e+00 -7.0314505372687464e-02 -4.2742460848180919e-01 0 0 0
88 65 3 -1.7999999999999999e-01 6.1803801347845617e+00 -1.2565973181834611e+00 6.4412504467513010e-02 0 0 0
241 176 9 4.1699999999999998e-01 5.9191221010965513e+00 2.3893808820860949e+00 -1.7115312873280217e+00 0 0 1
150 145 9 4.1699999999999998e-01 2.0693315274571233e+00 -3.1717939425206638e+00 -4.9982419463333496e+00 0 0 0
78 65 1 8.9999999999999997e-02 1.6873248833193752e+00 1.6772227337637657e+00 1.0758274749830630e+00 0 0 0
159 148 9 4.1699999999999998e-01 2.5629360751222539e+00 -3.7506119107710467e+00 1.4780220733204290e+00 0 0 0
187 157 9 4.1699999999999998e-01 2.2386987443292856e+00 1.4553257694577404e-01 2.2807619629900246e+00 0 0 -1
277 188 9 4.1699999999999998e-01 4.7870549727297256e+00 -9.1170645349788781e-01 3.9373355339625933e+00 0 0 0
149 145 10 -8.3399999999999996e-01 2.5133770746478632e+00 -4.0090438310545142e+00 -4.8635996840510440e+00 0 0 0
68 65 6 -6.5000000000000002e-01 1.8259888746187496e+00 2.7350400396959094e+00 5.8815165472333293e+00 0 0 0
66 65 5 -2.8000000000000003e-01 1.0100367088946030e+00 2.3748898854496430e+00 3.6976292545956424e+00 0 0 0
107 131 10 -8.3399999999999996e-01 9.9370724616450978e-01 -1.9627332183227537e+00 -5.8061172230046871e+00 0 0 0
82 65 3 -1.7999999999999999e-01 4.2462456875154277e+00 4.3605323184457223e-01 4.7268466065562098e-01 0 0 0
256 181 9 4.1699999999999998e-01 8.3083192236875671e+00 -6.0234679377302296e+00 -3.9213161890811805e+00 0 1 0
167 151 10 -8.3399999999999996e-01 3.0507729465455409e+00 -5.3301281264345137e+00 6.1464731869612530e+00 0 0 0
236 174 9 4.1699999999999998e-01 7.3262162981692658e+00 -3.1942510863194360e+00 5.8268371788113997e+00 0 0 0
121 135 9 4.1699999999999998e-01 2.4384374850824813e+00 5.4763548959339952e+00 5.4451945933602977e+00 0 -1 0
226 171 9 4.1699999999999998e-01 8.6847418226255275e+00 -1.4432393992872372e+00 -2.4110289059680881e+00 0 0 0
97 65 3 -1.7999999999999999e-01 6.0072995289693072e+00 -5.1641302909197906e+00 -2.8940408171672871e-01 0 0 0
103 65 4 -2.7000000000000002e-01 6.5224932523335752e+00 5.5799371378411946e+00 -3.5890675938592587e-01 0 -1 0
106 65 2 8.9999999999999997e-02 5.6484844990290579e+00 5.6274119434641969e+00 -1.0432008579439094e+00 0 -1 0
267 185 10 -8.3399999999999996e-01 3.5337320639843171e+00 -4.0760288086672709e+00 3.2490020840482243e+00 0 1 0
269 185 9 4.1699999999999998e-01 2.6424034805439049e+00 -3.9458848622818867e+00 3.5728690521236013e+00 0 1 0
197 161 12 1.0000000000000000e+00 5.0206532075628498e+00 -5.1148339925083404e+00 4.9561482761628168e+00 0 0 -1
95 65 1 8.9999999999999997e-02 5.7407296361698350e+00 -3.9037160580353847e+00 1.5321167406497915e+00 0 0 0
99 65 1 8.9999999999999997e-02 4.9221382037196566e+00 -5.3769625799563361e+00 -3.9678775282766932e-01 0 0 0
101 65 1 8.9999999999999997e-02 6.3565104268565396e+00 -6.3599716590373792e+00 1.4025197209697433e+00 0 0 0
105 65 2 8.9999999999999997e-02 6.4653940962386649e+00 4.6875674702545096e+00 3.0050240542897289e-01 0 -1 0
211 166 9 4.1699999999999998e-01 5.5987230824106060e+00 -3.0629077797691315e+00 -6.0885055060703914e+00 0 0 1
155 147 10 -8.3399999999999996e-01 2.9323377650210141e+00 5.9083780854284020e+00 6.5057780454994152e-01 0 -1 0
184 156 9 4.1699999999999998e-01 2.5185625125462163e+00 2.8166717222674480e+00 -3.6457973639610066e+00 0 0 1
157 147 9 4.1699999999999998e-01 2.4302086891073138e+00 5.5966135862906095e+00 -1.0239063838161577e-01 0 -1 0
182 156 10 -8.3399999999999996e-01 3.2778326576808272e+00 2.3004187245003864e+00 -3.3750868445597342e+00 0 0 1
210 166 10 -8.3399999999999996e-01 5.2764102463571945e+00 -3.0654005414063255e+00 6.3144130865778960e+00 0 0 0
212 166 9 4.1699999999999998e-01 5.0898852847814435e+00 -2.1460927039059658e+00 6.1236925256675550e+00 0 0 0
183 156 9 4.1699999999999998e-01 3.2941679460245012e+00 1.5608697576488852e+00 -3.9826180804682578e+00 0 0 1
268 185 9 4.1699999999999998e-01 3.9333819194619757e+00 -3.2072043345208732e+00 3.2904250791283518e+00 0 1 0
172 152 9 4.1699999999999998e-01 1.1533400799281424e+00 -4.2594825104845695e+00 4.9459951676231393e+00 0 0 0
171 152 9 4.1699999999999998e-01 3.1298514928856136e-01 -4.9671439759690124e+00 3.9043286588318056e+00 0 0 0
170 152 10 -8.3399999999999996e-01 9.4481218536186518e-01 -4.2561261711907337e+00 4.0117585441362733e+00 0 0 0
239 175 9 4.1699999999999998e-01 3.1249963465071122e+00 -2.5714264507806917e-01 -4.1326074099386902e+00 0 0 1
173 153 10 -8.3399999999999996e-01 1.7862112912487138e+00 -2.4242564851910764e-01 -2.6212636112078824e+00 0 0 0
175 153 9 4.1699999999999998e-01 1.5307037363401914e+00 6.5987090393143966e-01 -2.4292462517554698e+00 0 0 0
174 153 9 4.1699999999999998e-01 1.4526479868971922e+00 -7.4907420383396150e-01 -1.8807662822166842e+00 0 0 0
273 187 10 -8.3399999999999996e-01 7.0642382983565231e+00 -4.7775658239930188e+00 3.8666524082976634e+00 0 1 0
275 187 9 4.1699999999999998e-01 7.4900143998071815e+00 -5.5600689207219212e+00 3.5163702575098936e+00 0 1 0
274 187 9 4.1699999999999998e-01 7.5645267954411022e+00 -4.0480309892003987e+00 3.5008868988786803e+00 0 1 0
93 65 1 8.9999999999999997e-02 4.4257805033107243e+00 -2.5127812649824390e+00 1.9224463838408923e-02 0 0 0
91 65 3 -1.7999999999999999e-01 5.5006365500380827e+00 -2.6244695339406556e+00 -2.3886952658653637e-01 0 0 0
237 175 10 -8.3399999999999996e-01 3.7720016584000611e+00 -4.1787983181489352e-02 -4.8043952608258405e+00 0 0 1
179 155 10 -8.3399999999999996e-01 8.3861423135247648e-01 -1.0148699758493080e+00 4.1002296567575591e-02 0 0 0
245 177 9 4.1699999999999998e-01 7.9781290832664293e+00 -1.0663671612085537e+00 -6.6345859823486659e+00 0 0 1
235 174 9 4.1699999999999998e-01 8.5752928360268132e+00 -2.8138918268125623e+00 5.0605574227200796e+00 0 0 0
117 134 9 4.1699999999999998e-01 3.2669183440927085e-01 6.2879003225100378e+00 2.6745692946268678e+00 0 -1 0
263 183 9 4.1699999999999998e-01 7.7533460002546217e+00 6.5879392605527887e-01 3.7719802074912012e+00 0 0 0
83 65 1 8.9999999999999997e-02 3.3868484768980025e+00 -2.6569980541655802e-01 4.1451698454127506e-01 0 0 0
257 181 9 4.1699999999999998e-01 7.8645742107368459e+00 5.8715723004362284e+00 -3.5907729117526017e+00 0 0 0
238 175 9 4.1699999999999998e-01 3.5461765386419799e+00 -6.0529264645864966e-01 -5.5445030046847243e+00 0 0 1
193 159 9 4.1699999999999998e-01 6.5728208119937648e-01 5.8151126505095077e+00 -2.9414410949626975e+00 0 0 0
271 186 9 4.1699999999999998e-01 4.8247137131660676e+00 2.8742592069490494e+00 4.5569027506147224e+00 0 0 0
276 188 10 -8.3399999999999996e-01 5.0234310058756542e+00 -1.6425271931037129e+00 3.3660900715810866e+00 0 0 0
254 180 9 4.1699999999999998e-01 6.9869563491871798e+00 1.9719569332205387e+00 5.8409977782884868e+00 0 0 -1
77 65 1 8.9999999999999997e-02 2.1484017320529745e+00 3.3805261598480962e+00 5.1791288596593876e-01 0 0 0
190 158 9 4.1699999999999998e-01 7.0321020097450955e+00 4.5744087342728248e+00 4.2699519449861194e+00 0 0 -1
156 147 9 4.1699999999999998e-01 3.7267059346818243e+00 6.2836761801528676e+00 2.7054898008569328e-01 0 -1 0
177 154 9 4.1699999999999998e-01 4.3698533250622980e+00 4.6384428489628604e-01 5.5830759021317844e+00 0 0 -1
178 154 9 4.1699999999999998e-01 3.4062800849859940e+00 -6.6586373756908568e-01 5.2875463091266104e+00 0 0 -1
176 154 10 -8.3399999999999996e-01 4.2723676135969217e+00 -4.8581850514949032e-01 5.6532914543750161e+00 0 0 -1
219 169 10 -8.3399999999999996e-01 5.8818796968507385e+00 6.5156889886793268e+00 6.0971591976322257e+00 0 -1 0
221 169 9 4.1699999999999998e-01 6.6547886345130163e+00 6.4303239654875179e+00 -6.6488646259781250e+00 0 -1 1
220 169 9 4.1699999999999998e-01 5.1419122487275057e+00 6.4630672778186122e+00 -6.6021357450672724e+00 0 -1 1
262 183 9 4.1699999999999998e-01 6.9975898081076071e+00 5.5994994939793763e-01 2.4638863383586509e+00 0 0 0
272 186 9 4.1699999999999998e-01 3.6300600427628282e+00 2.5237721222142282e+00 5.4183039436546752e+00 0 0 0
270 186 10 -8.3399999999999996e-01 4.4920408275663473e+00 2.2031061480278895e+00 5.1528695774942745e+00 0 0 0
261 183 10 -8.3399999999999996e-01 7.5479434713203073e+00 5.2398539892883456e-02 3.0603714255051235e+00 0 0 0
79 65 3 -1.7999999999999999e-01 3.6055138521278796e+00 1.7262018885569264e+00 -1.1859560076299402e-03 0 0 0
185 157 10 -8.3399999999999996e-01 2.1219936862569018e+00 -7.8156038547075912e-01 2.4885408562200650e+00 0 0 -1
81 65 1 8.9999999999999997e-02 3.2255628745878635e+00 1.6705496956133361e+00 -1.0437523577394368e+00 0 0 0
72 65 1 8.9999999999999997e-02 1.3519588630343691e+00 4.2692732311712289e+00 2.7594478782505609e+00 0 0 0
84 65 1 8.9999999999999997e-02 4.5500927709565389e+00 4.9035605567182206e-01 1.5399856762871815e+00 0 0 0
73 65 3 -1.7999999999999999e-01 2.9947798887054358e+00 2.7373850940889772e+00 2.3136469386438856e+00 0 0 0
146 144 10 -8.3399999999999996e-01 4.2283011223974043e+00 -6.6204871559198120e+00 3.4156347010862893e+00 0 0 -1
147 144 9 4.1699999999999998e-01 4.2427327999022424e+00 6.0732824171851414e+00 2.6784805512473175e+00 0 -1 -1
148 144 9 4.1699999999999998e-01 3.6880714624597903e+00 -5.8907721571073584e+00 3.1123830104455648e+00 0 0 -1
75 65 1 8.9999999999999997e-02 3.8331800986048155e+00 3.4477728733081934e+00 2.1498216840851105e+00 0 0 0
74 65 1 8.9999999999999997e-02 3.3854769856765810e+00 1.8347893761668219e+00 2.8304459085914333e+00 0 0 0
70 65 3 -2.8000000000000003e-01 1.8901775437303634e+00 3.4063873068988153e+00 3.2068318839398247e+00 0 0 0
89 65 1 8.9999999999999997e-02 6.1608837216444137e+00 -1.0800462345323858e+00 1.1611595228356979e+00 0 0 0
80 65 1 8.9999999999999997e-02 4.3878575110561684e+00 2.5145266159928736e+00 -3.0970914872320954e-02 0 0 0
71 65 1 8.9999999999999997e-02 2.6054327132655501e+00 3.8277233264777513e+00 3.9452673979070996e+00 0 0 0
188 158 10 -8.3399999999999996e-01 6.1951329085527931e+00 4.4581781907456390e+00 3.8202109879634323e+00 0 0 -1
189 158 9 4.1699999999999998e-01 5.7145386539844587e+00 5.2674344198182981e+00 3.9946465288045916e+00 0 0 -1
76 65 3 -1.7999999999999999e-01 2.5124590539132594e+00 2.3942328651959608e+00 8.7720679277963409e-01 0 0 0
141 142 9 4.1699999999999998e-01 4.6187497023999846e-01 3.4877318907051018e+00 -4.8336107444704108e+00 0 0 0
181 155 9 4.1699999999999998e-01 3.8017743018831673e-01 -1.9260221387156928e-01 -1.3221366633204390e-01 0 0 0
223 170 9 4.1699999999999998e-01 6.6428364799468014e+00 -1.1514836098668901e+00 -4.7306082324790726e+00 0 0 0
140 142 10 -8.3399999999999996e-01 7.8233887414039671e-01 2.9549278852009389e+00 -4.1057943593375974e+00 0 0 0
243 177 10 -8.3399999999999996e-01 7.5659033276905152e+00 -3.8519923879641915e-01 -6.1031970719868216e+00 0 0 1
265 184 9 4.1699999999999998e-01 8.3576627144084679e+00 -1.6036838402124447e+00 3.3082957383015588e+00 0 0 0
247 178 9 4.1699999999999998e-01 7.7229238871817198e+00 1.0354770563466911e+00 -4.5186737243665309e+00 0 0 0
118 134 9 4.1699999999999998e-01 1.6251123953400164e+00 6.3981722374089474e+00 1.9038598113946064e+00 0 -1 0
191 159 10 -8.3399999999999996e-01 5.1374376220972096e-01 5.1315489389838378e+00 -2.2868962887891540e+00 0 0 0
125 137 10 -8.3399999999999996e-01 2.8511563301138114e+00 -4.2212829316580009e+00 -2.0105816925589615e+00 0 0 0
109 131 9 4.1699999999999998e-01 9.8697740557303781e-01 -1.5362878787801542e+00 6.6411676350703921e+00 0 0 -1
264 184 10 -8.3399999999999996e-01 8.4934500499149106e+00 -2.5439308097022817e+00 3.1908602387435279e+00 0 0 0
244 177 9 4.1699999999999998e-01 7.6205265072178445e+00 4.0473073347579458e-01 -6.6410829147715118e+00 0 0 1
252 180 10 -8.3399999999999996e-01 7.8068766690973153e+00 1.8248445584525532e+00 5.3694232306777225e+00 0 0 -1
134 140 10 -8.3399999999999996e-01 1.2350719042059755e+00 -9.2073202600543791e-01 5.1199048510264573e+00 0 0 0
126 137 9 4.1699999999999998e-01 2.0721270278920425e+00 -4.0596019503011753e+00 -1.4783551309411163e+00 0 0 0
144 143 9 4.1699999999999998e-01 6.9899095098183395e-01 5.4595309063720299e+00 -5.8618626996140923e+00 0 -1 0
200 162 9 4.1699999999999998e-01 7.2910972148169986e+00 -3.3557882970616180e+00 -4.4130636733293072e+00 0 0 0
255 181 10 -8.3399999999999996e-01 8.2259498779032629e+00 -6.6401280511510246e+00 -3.1938299786315878e+00 0 1 0
258 182 10 -8.3399999999999996e-01 6.9027440287602602e+00 4.4853229514072650e+00 -4.3321235800536853e+00 0 0 0
136 140 9 4.1699999999999998e-01 1.4719837933519138e+00 -1.2012852515042320e+00 4.2359051157468874e+00 0 0 0
194 160 10 -8.3399999999999996e-01 2.6921403128921639e-01 -6.0951864544368259e+00 -6.3498341901551747e-01 0 1 0
259 182 9 4.1699999999999998e-01 6.6289427439043482e+00 3.7969247488735993e+00 -4.9382875329682214e+00 0 0 0
142 142 9 4.1699999999999998e-01 7.9079326970530950e-01 3.5514349233754343e+00 -3.3571942963394887e+00 0 0 0
108 131 9 4.1699999999999998e-01 6.6488149061021851e-01 -1.2956362218245463e+00 -5.2034987758272706e+00 0 0 0
253 180 9 4.1699999999999998e-01 8.0807327346577704e+00 2.6972617265071390e+00 5.0862545463974387e+00 0 0 -1
65 65 7 1.3300000000000001e+00 5.8307477806823194e-01 2.5734710288436213e+00 5.1906890174963758e+00 0 0 0
225 171 10 -8.3399999999999996e-01 8.2494201696434697e+00 -2.2957299088897827e+00 -2.4040204485427719e+00 0 0 0
192 159 9 4.1699999999999998e-01 1.3062663075685066e-01 5.5912969608362859e+00 -1.5398040188652127e+00 0 0 0