LAMMPS data file via write_data, version 16 Mar 2018, timestep = 2500

714 atoms
12 atom types
403 bonds
8 bond types
260 angles
13 angle types
132 dihedrals
18 dihedral types

-1.9136423946025680e+01 1.9136423946025680e+01 xlo xhi
-7.1761591252809538e+00 7.1761591252809538e+00 ylo yhi
-7.1761591252809538e+00 7.1761591252809538e+00 zlo zhi

Masses

1 1.008
2 1.008
3 12.011
4 12.011
5 15.9994
6 15.9994
7 32.06
8 196.966
9 1.008
10 15.9994
11 35.45
12 22.9898

Pair Coeffs # lj/charmmfsw/coul/long

1 0.028 2.38761 0.028 2.38761
2 0.024 2.38761 0.024 2.38761
3 0.056 3.58141 0.01 3.38542
4 0.078 3.63487 0.01 3.38542
5 0.1 2.93997 0.1 2.93997
6 0.12 3.02906 0.12 3.02906
7 0.47 3.74177 0.47 3.74177
8 5.29 2.62904 5.29 2.62904
9 0.046 0.400014 0.046 0.400014
10 0.1521 3.15057 0.1521 3.15057
11 0.15 4.04468 0.15 4.04468
12 0.0469 2.42993 0.0469 2.42993

Bond Coeffs # harmonic

1 222.5 1.53
2 222.5 1.528
3 309 1.111
4 340 1.43
5 322 1.111
6 450 0.9572
7 540 1.448
8 250 1.575

Angle Coeffs # charmm

1 58.35 113.6 11.16 2.561
2 58 115 8 2.561
3 26.5 110.1 22.53 2.179
4 75.7 110.1 0 0
5 34.6 110.1 22.53 2.179
6 15 109 27 1.9
7 34.6 110.1 22.53 2.179
8 35.5 109 5.4 1.802
9 60 109.5 0 0
10 35.5 108.4 5.4 1.802
11 55 104.52 0 0
12 130 109.47 35 2.45
13 85 98 0 0

Dihedral Coeffs # charmmfsw

1 0.101 2 0 1
2 0.142 3 180 0
3 0.074 4 0 0
4 0.097 5 0 0
5 0.162 2 0 1
6 0.047 3 180 0
7 0.105 4 0 0
8 0.177 5 0 0
9 0.19 3 0 1
10 0 3 0 1
11 0.16 3 0 1
12 0 3 0 1
13 0 3 0 1
14 0.19 3 0 1
15 0.19 3 0 1
16 0.19 3 0 1
17 0.16 3 0 1
18 0 3 0 1

Atoms # full

1 1 8 0.0000000000000000e+00 -1.2701028029946261e+01 -5.5514442871436414e+00 -6.8989756167902323e+00 0 0 0
2 2 8 0.0000000000000000e+00 -1.2567220450455657e+01 -3.8480748072880382e+00 -4.5218675322256896e+00 0 0 0
5 5 8 0.0000000000000000e+00 -1.3021718551629039e+01 -6.6518454389223525e+00 -3.7105601171513989e+00 0 0 0
6 6 8 0.0000000000000000e+00 -1.2892477943225416e+01 -4.7255700367255891e+00 -1.6158304558750336e+00 0 0 0
9 9 8 0.0000000000000000e+00 -1.4259070438127942e+01 -6.7495745504632430e+00 -1.1799786217392061e-01 0 0 0
18 18 8 0.0000000000000000e+00 -1.1959718880941217e+01 -1.1369185315686714e+00 -4.6256234230133302e+00 0 0 0
21 21 8 0.0000000000000000e+00 -1.4679469551918373e+01 -2.0162012285094937e+00 -3.4893170991762439e+00 0 0 0
214 273 9 4.1699999999999998e-01 -1.6882202032434549e+01 -2.5614747990886864e+00 -6.4477419310790900e+00 0 0 0
222 276 10 -8.3399999999999996e-01 -1.7727046482685154e+01 -7.0194545679593201e-01 -3.9354171917571086e+00 0 0 0
237 281 10 -8.3399999999999996e-01 -1.4959495097166169e+01 -3.9900762683817081e-01 -5.8283887747295466e+00 0 0 1
23 23 8 0.0000000000000000e+00 -1.1582245966077252e+01 -1.9667885451604681e+00 -1.9072435231191198e+00 0 0 0
215 273 9 4.1699999999999998e-01 -1.5570408645419866e+01 -2.0337342334027149e+00 -5.9067656098164001e+00 0 0 0
224 276 9 4.1699999999999998e-01 -1.7870186398865371e+01 -2.1037634345347023e-01 -4.7442001820084077e+00 0 0 0
171 259 10 -8.3399999999999996e-01 -1.5879925295236973e+01 -6.7491197759223205e+00 -6.8309637526830551e+00 0 0 0
177 261 10 -8.3399999999999996e-01 -1.5694889517232809e+01 -5.1945169132579707e+00 -4.5309953436899466e+00 0 0 0
178 261 9 4.1699999999999998e-01 -1.6101254992582245e+01 -5.7557746352815826e+00 -5.1913884526862990e+00 0 0 0
179 261 9 4.1699999999999998e-01 -1.5632459620807190e+01 -4.3365158033173525e+00 -4.9507541227434668e+00 0 0 0
221 275 9 4.1699999999999998e-01 -1.7110649252560254e+01 -1.2004388812341258e+00 -7.3027469094745445e-01 0 0 0
25 25 8 0.0000000000000000e+00 -1.4083701090183144e+01 -1.7347028832662286e+00 -6.5445450531365346e-01 0 0 0
220 275 9 4.1699999999999998e-01 -1.7275952523714508e+01 -1.4465036711726844e+00 -2.2148924028352681e+00 0 0 0
223 276 9 4.1699999999999998e-01 -1.7979024732877384e+01 -1.5995578985998620e+00 -4.1523459986831428e+00 0 0 0
238 281 9 4.1699999999999998e-01 -1.4376470555537097e+01 -2.9025801663906670e-01 -5.0770464231755721e+00 0 0 1
219 275 10 -8.3399999999999996e-01 -1.7110442372540447e+01 -1.8970853309166502e+00 -1.3867367411370077e+00 0 0 0
186 264 10 -8.3399999999999996e-01 -1.5870965378234857e+01 -4.2873636166017270e+00 -1.4192159539129596e+00 0 0 0
247 284 9 4.1699999999999998e-01 -1.6497296236991591e+01 -6.4185091420969966e+00 -2.6270721098235210e+00 0 1 0
188 264 9 4.1699999999999998e-01 -1.5410936835381889e+01 -4.2341159872692042e+00 -2.2569505600828812e+00 0 0 0
213 273 10 -8.3399999999999996e-01 -1.6027676781720995e+01 -2.8461945131721347e+00 -6.1237338821524050e+00 0 0 0
187 264 9 4.1699999999999998e-01 -1.6203348925620457e+01 -3.4019911625146437e+00 -1.2712442742950669e+00 0 0 0
174 260 10 -8.3399999999999996e-01 -1.8399634962357393e+01 -1.7587922083919638e+00 -6.9727551524502891e+00 0 0 0
658 422 10 -8.3399999999999996e-01 -1.8337867853137979e+01 -3.5109684428038990e+00 -4.2081252246906748e+00 1 0 0
248 284 9 4.1699999999999998e-01 -1.7960145612890560e+01 -6.6598371401502501e+00 -2.3208092237576796e+00 0 1 0
624 410 9 4.1699999999999998e-01 -1.8864093144747777e+01 -1.9813144287444819e+00 -9.8852317326094852e-01 1 0 0
246 284 10 -8.3399999999999996e-01 -1.7111202148515272e+01 -7.1007216794254280e+00 -2.3551075318895895e+00 0 1 0
176 260 9 4.1699999999999998e-01 -1.8804203564619144e+01 -9.1776573250970817e-01 -6.7600167942981031e+00 0 0 0
694 434 10 -8.3399999999999996e-01 -1.8384781369519107e+01 -4.8913350669966391e+00 -4.5676537973753817e-02 1 1 0
660 422 9 4.1699999999999998e-01 -1.8149716413402334e+01 -3.7874052094994171e+00 -5.1050347471267852e+00 1 0 0
659 422 9 4.1699999999999998e-01 -1.8719481393386626e+01 -4.2847685089018075e+00 -3.7935608445880868e+00 1 0 0
695 434 9 4.1699999999999998e-01 -1.7508464562237375e+01 -4.7151869657144525e+00 -3.8817097940382794e-01 1 1 0
173 259 9 4.1699999999999998e-01 -1.5062277498759457e+01 -6.3105063003050326e+00 -7.0661886684758004e+00 0 0 0
202 269 9 4.1699999999999998e-01 -1.8342126771300318e+01 -5.4860294398142715e+00 6.8375627039778379e+00 0 0 0
10 10 8 0.0000000000000000e+00 -1.3640701678946801e+01 -3.9582520135883694e+00 9.0003659717849693e-01 0 0 0
13 13 8 0.0000000000000000e+00 -1.3601536250054462e+01 -5.5536346993818730e+00 3.5985103573654627e+00 0 0 0
14 14 8 0.0000000000000000e+00 -1.4761379633918740e+01 -4.3611299523582598e+00 5.9029841974673865e+00 0 0 0
201 269 10 -8.3399999999999996e-01 -1.7690427688064140e+01 -5.5663723736534108e+00 6.1410771750414863e+00 0 0 0
26 26 8 0.0000000000000000e+00 -1.2912798708801475e+01 -1.1410379452750101e+00 1.7225994932910016e+00 0 0 0
29 29 8 0.0000000000000000e+00 -1.3966873209727671e+01 -2.7444454257524393e+00 3.8201776477433729e+00 0 0 0
30 30 8 0.0000000000000000e+00 -1.2540717314390630e+01 -5.0784430343012499e-01 5.1452651298061358e+00 0 0 0
236 280 9 4.1699999999999998e-01 -1.6161653499452846e+01 -1.4765860227018166e+00 1.3254192537002680e+00 0 0 0
191 265 9 4.1699999999999998e-01 -1.6876747196355250e+01 -5.9772438899823674e+00 4.4393168665756217e+00 0 0 0
241 282 9 4.1699999999999998e-01 -1.6257448330561321e+01 -1.4653040473767946e+00 6.5110140255725621e+00 0 0 0
240 282 10 -8.3399999999999996e-01 -1.5763037995080742e+01 -1.4183985080580932e+00 5.6927121245404368e+00 0 0 0
234 280 10 -8.3399999999999996e-01 -1.5839748538030891e+01 -2.2611264723105382e+00 1.7694150307001966e+00 0 0 0
696 434 9 4.1699999999999998e-01 -1.8415953222641434e+01 -5.8426191941786616e+00 5.6041165110793045e-02 1 1 0
232 279 9 4.1699999999999998e-01 -1.6164370545185712e+01 -5.2058122441231891e+00 1.0381401297586148e+00 0 0 0
633 413 9 4.1699999999999998e-01 -1.8494627810888648e+01 -4.8935313445643409e+00 3.5707010698137971e+00 1 0 0
17 17 8 0.0000000000000000e+00 -1.2639492872442730e+01 -2.6591820038068477e+00 7.1583055941145410e+00 0 0 -1
198 268 10 -8.3399999999999996e-01 -1.7373553747631110e+01 -3.4304703119028672e+00 4.3315272709758297e+00 0 0 0
199 268 9 4.1699999999999998e-01 -1.7878673825202629e+01 -2.8761593561524137e+00 3.7366724863535072e+00 0 0 0
200 268 9 4.1699999999999998e-01 -1.6597078516913989e+01 -2.9116880130149738e+00 4.5417906845618461e+00 0 0 0
203 269 9 4.1699999999999998e-01 -1.7591053121733939e+01 -4.6769024056289519e+00 5.8016262470001365e+00 0 0 0
190 265 9 4.1699999999999998e-01 -1.5810817329163282e+01 -6.2807796938959832e+00 3.4079937534027049e+00 0 0 0
233 279 9 4.1699999999999998e-01 -1.5966604597437620e+01 -3.9800274100617048e+00 1.9043411209340402e+00 0 0 0
11 11 8 0.0000000000000000e+00 -1.1956209929276728e+01 -6.4514985551789179e+00 1.4208291752574453e+00 0 0 0
231 279 10 -8.3399999999999996e-01 -1.6196612689167907e+01 -4.9082011578221838e+00 1.9473417300258955e+00 0 0 0
235 280 9 4.1699999999999998e-01 -1.5944085785931328e+01 -2.0693141423470918e+00 2.7013917141296950e+00 0 0 0
242 282 9 4.1699999999999998e-01 -1.4848408370404272e+01 -1.3563625319413131e+00 5.9681480871967079e+00 0 0 0
229 278 9 4.1699999999999998e-01 -1.7097596026446272e+01 -6.3550462076389547e-01 4.2595480510924482e+00 0 0 0
189 265 10 -8.3399999999999996e-01 -1.6285987818368021e+01 -6.6694365612819828e+00 4.1424473586395578e+00 0 0 0
673 427 10 -8.3399999999999996e-01 -1.7460299315866671e+01 -3.2486831348666279e-01 8.6610614446358092e-01 1 0 0
228 278 10 -8.3399999999999996e-01 -1.7891599335369008e+01 -7.1091125187284820e-01 3.7302721866123143e+00 0 0 0
45 45 8 0.0000000000000000e+00 -1.4929631648547220e+01 -1.3049576619966530e-02 3.3125857302517119e+00 0 0 0
675 427 9 4.1699999999999998e-01 -1.7799127609808185e+01 -3.3059955181252665e-01 1.7613278453153605e+00 1 0 0
230 278 9 4.1699999999999998e-01 -1.8601334130936124e+01 -4.7375183527778475e-01 4.3271740985878822e+00 0 0 0
175 260 9 4.1699999999999998e-01 -1.9132714786000658e+01 -2.3214694685100383e+00 7.1300691434187229e+00 0 0 -1
172 259 9 4.1699999999999998e-01 -1.6518237527266226e+01 -6.4232342570046548e+00 6.8868338211786746e+00 0 0 -1
243 283 10 -8.3399999999999996e-01 -1.5506615395289408e+01 5.7983967762017308e+00 -4.8085632530159410e+00 0 0 0
34 34 8 0.0000000000000000e+00 -1.3442094879479408e+01 3.5279318022573865e+00 -4.1544532686792834e+00 0 0 0
257 287 9 4.1699999999999998e-01 -1.6506081021157449e+01 2.2495713609051062e+00 -2.4079335966090065e+00 0 0 0
38 38 8 0.0000000000000000e+00 -1.1858749433840305e+01 3.5366272080354477e+00 -1.7318281471166976e+00 0 0 0
278 294 9 4.1699999999999998e-01 -1.6895183028715476e+01 3.2176675301966444e+00 -6.4645707831229346e+00 0 0 1
50 50 8 0.0000000000000000e+00 -1.2409564651863484e+01 5.9712715117018398e+00 -6.1036528699713202e+00 0 0 0
53 53 8 0.0000000000000000e+00 -1.4113987542505242e+01 5.5606442426737477e+00 -2.1238304542775479e+00 0 0 0
277 294 9 4.1699999999999998e-01 -1.6164448611004868e+01 4.5156739362718099e+00 -6.1940718160796937e+00 0 0 1
57 57 8 0.0000000000000000e+00 -1.4499232398838176e+01 2.9741302039186355e+00 -9.6616854578009015e-01 0 0 0
710 439 9 4.1699999999999998e-01 -1.8721318674509231e+01 4.8207924209171775e+00 -6.5737205949482398e+00 1 0 1
647 418 9 4.1699999999999998e-01 -1.8378265734309345e+01 1.3069353490615150e+00 -6.8930318279061265e+00 1 0 0
276 294 10 -8.3399999999999996e-01 -1.6865424423523251e+01 4.1381614446851831e+00 -6.7254640551839611e+00 0 0 1
211 272 9 4.1699999999999998e-01 -1.6005301445411096e+01 2.4732536177444544e+00 -4.5972979469122759e+00 0 0 0
210 272 10 -8.3399999999999996e-01 -1.6120338051263921e+01 2.0541863995606615e+00 -5.4501812509302709e+00 0 0 0
255 287 10 -8.3399999999999996e-01 -1.6980529794254124e+01 1.5880076031364005e+00 -1.9044548647708277e+00 0 0 0
28 28 8 0.0000000000000000e+00 -1.1928207515774412e+01 7.8448741050181692e-01 -3.4888800984973489e-01 0 0 0
185 263 9 4.1699999999999998e-01 -1.5700239305951847e+01 5.2727817193862556e+00 -4.7626310034274510e-01 0 -1 0
258 288 10 -8.3399999999999996e-01 -1.8878293821393200e+01 5.1972892875196965e+00 -3.4644992410292188e+00 0 0 0
245 283 9 4.1699999999999998e-01 -1.5290412078864186e+01 6.3702194727029209e+00 -4.0719930373615014e+00 0 0 0
212 272 9 4.1699999999999998e-01 -1.6973711795027064e+01 1.6243398886584579e+00 -5.3932193641657253e+00 0 0 0
256 287 9 4.1699999999999998e-01 -1.6808403602674773e+01 7.6676028819036368e-01 -2.3650903756150008e+00 0 0 0
22 22 8 0.0000000000000000e+00 -1.3997719510872333e+01 5.4264407361559819e-01 -2.4454928961999700e+00 0 0 0
33 33 8 0.0000000000000000e+00 -1.2232114379212160e+01 9.7581687969727859e-01 -6.6767775876073854e+00 0 0 0
249 285 10 -8.3399999999999996e-01 -1.6460081347018836e+01 3.7252974729388253e+00 -3.4246355244377886e+00 0 0 0
250 285 9 4.1699999999999998e-01 -1.7349420243707410e+01 4.0772446078475912e+00 -3.4630070750478690e+00 0 0 0
251 285 9 4.1699999999999998e-01 -1.5925347311471565e+01 4.3738785754978906e+00 -3.8825271606454717e+00 0 0 0
646 418 10 -8.3399999999999996e-01 -1.8693124580176033e+01 8.5906171997786274e-01 -6.1078351275935789e+00 1 0 0
244 283 9 4.1699999999999998e-01 -1.5620961080972814e+01 6.3939137568382023e+00 -5.5492013264290749e+00 0 0 0
260 288 9 4.1699999999999998e-01 -1.8471474215388852e+01 5.7841959890644752e+00 -2.8270837942820366e+00 0 0 0
184 263 9 4.1699999999999998e-01 -1.6751967594531450e+01 6.3154647971898470e+00 -7.9033871454148041e-01 0 -1 0
263 289 9 4.1699999999999998e-01 -1.7483991395640782e+01 2.3327863121592838e+00 -3.3636555285633651e-01 0 0 0
49 49 8 0.0000000000000000e+00 -1.3748867978910848e+01 3.4597190610101443e+00 -6.9412973810943939e+00 0 0 0
239 281 9 4.1699999999999998e-01 -1.5251532258962991e+01 4.8861398589876881e-01 -6.0359985810266537e+00 0 0 1
183 263 10 -8.3399999999999996e-01 -1.6597969103899750e+01 5.5297420943391202e+00 -2.6575920502766959e-01 0 -1 0
218 274 9 4.1699999999999998e-01 -1.8996844752436953e+01 2.8574218755570335e+00 -3.7777067139879583e+00 0 0 0
259 288 9 4.1699999999999998e-01 -1.9036706947341280e+01 5.7482248889098262e+00 -4.2310725395219224e+00 0 0 0
273 293 10 -8.3399999999999996e-01 -1.6808601623830199e+01 2.4040152449799432e+00 3.5066335866558731e+00 0 0 0
42 42 8 0.0000000000000000e+00 -1.4411536437975258e+01 3.2958479292986969e+00 1.8780206286361505e+00 0 0 0
262 289 9 4.1699999999999998e-01 -1.7215550936775610e+01 3.3397149448522736e+00 7.6181421801966742e-01 0 0 0
46 46 8 0.0000000000000000e+00 -1.4632076454135440e+01 1.1933526469948124e+00 5.9511478700199323e+00 0 0 0
265 290 9 4.1699999999999998e-01 -1.6696467188761940e+01 5.4370942484092950e+00 2.8601004085626265e+00 0 0 0
58 58 8 0.0000000000000000e+00 -1.4308624033609613e+01 6.1096810443384353e+00 2.7020449750095299e+00 0 0 0
61 61 8 0.0000000000000000e+00 -1.4359844529294666e+01 3.8754441264929085e+00 4.6989394576806109e+00 0 0 0
261 289 10 -8.3399999999999996e-01 -1.7319821027497316e+01 2.4013458310920317e+00 6.0416975644256699e-01 0 0 0
272 292 9 4.1699999999999998e-01 -1.6977526547729926e+01 4.9626823025701086e+00 6.1014244984675106e+00 0 0 0
268 291 9 4.1699999999999998e-01 -1.7304867512317600e+01 2.0640728167704907e+00 5.3299735339028302e+00 0 0 0
48 48 8 0.0000000000000000e+00 -1.2129107210234073e+01 2.2091599609921353e+00 5.1392172343715892e+00 0 0 0
275 293 9 4.1699999999999998e-01 -1.6933682631636390e+01 3.3276573175181205e+00 3.2886865138016788e+00 0 0 0
59 59 8 0.0000000000000000e+00 -1.2040747169265195e+01 4.2789902609797004e+00 3.0138888233626933e+00 0 0 0
688 432 10 -8.3399999999999996e-01 -1.8881672155099736e+01 6.7104021833828362e+00 8.5926318823680425e-01 1 0 0
54 54 8 0.0000000000000000e+00 -1.2784014728183063e+01 5.0511654830385790e+00 4.0401392350482457e-01 0 0 0
271 292 9 4.1699999999999998e-01 -1.6924710872229770e+01 6.0300330915375593e+00 5.0290723723638191e+00 0 0 0
269 291 9 4.1699999999999998e-01 -1.8060860645638524e+01 3.1457795231552943e+00 6.0718275778422388e+00 0 0 0
690 432 9 4.1699999999999998e-01 -1.8722157107491419e+01 6.3552951564225761e+00 1.7337425237655193e+00 1 0 0
674 427 9 4.1699999999999998e-01 -1.7423873707135119e+01 6.0185618724297729e-01 6.2921745021071285e-01 1 0 0
43 43 8 0.0000000000000000e+00 -1.2466227091251010e+01 1.3798369641774517e+00 2.4691191367166905e+00 0 0 0
267 291 10 -8.3399999999999996e-01 -1.7939795558489401e+01 2.1970108162859532e+00 6.0338584016564951e+00 0 0 0
62 62 8 0.0000000000000000e+00 -1.3683303008593796e+01 6.7174514446077360e+00 5.6564527778671003e+00 0 0 0
63 63 8 0.0000000000000000e+00 -1.1647444295711509e+01 4.8278554110248901e+00 5.7606177361664148e+00 0 0 0
274 293 9 4.1699999999999998e-01 -1.7169164269787071e+01 1.9296918960867799e+00 2.7574513284338220e+00 0 0 0
264 290 10 -8.3399999999999996e-01 -1.7136553999937160e+01 4.8602931444005932e+00 2.2356938461352165e+00 0 0 0
266 290 9 4.1699999999999998e-01 -1.7031110259677806e+01 5.2967257203644724e+00 1.3903135475286543e+00 0 0 0
270 292 10 -8.3399999999999996e-01 -1.7291895436774031e+01 5.1670665185534297e+00 5.2207088342804955e+00 0 0 0
41 41 8 0.0000000000000000e+00 -1.4595242432093759e+01 7.6885981873753995e-01 5.2941801953030687e-01 0 0 0
205 270 9 4.1699999999999998e-01 -1.9136012525632445e+01 4.5997911799325504e+00 5.1967305247787596e+00 0 -1 0
3 3 8 0.0000000000000000e+00 -1.0470509519240288e+01 -6.2209591778531150e+00 -4.9834853683715981e+00 0 0 0
4 4 8 0.0000000000000000e+00 -1.0244140709120382e+01 -4.2151012032105690e+00 -6.8464818929178763e+00 0 0 0
85 85 8 0.0000000000000000e+00 -7.1610249174145579e+00 -2.5326223751024752e+00 -3.5467009057657481e+00 0 0 0
8 8 8 0.0000000000000000e+00 -1.0112718996276742e+01 -5.2508915249985737e+00 -2.4406037656457213e+00 0 0 0
19 19 8 0.0000000000000000e+00 -9.8772127240624243e+00 -3.1685557441619929e+00 -4.2723755761789395e+00 0 0 0
20 20 8 0.0000000000000000e+00 -9.8443587364581813e+00 -1.4390809070281598e+00 -6.3892463672211939e+00 0 0 0
88 88 8 0.0000000000000000e+00 -5.3002843176078080e+00 -4.5767384238310260e-01 -3.2469828403713454e+00 0 0 0
24 24 8 0.0000000000000000e+00 -9.4305347203527301e+00 -5.4033241649046193e-01 -3.4377973504225889e+00 0 0 0
65 65 8 0.0000000000000000e+00 -8.0490772503278745e+00 -6.1880794371679686e+00 -7.0524275542322119e+00 0 0 0
66 66 8 0.0000000000000000e+00 -7.8399457908100203e+00 -5.2827075020123120e+00 -4.3985489668765005e+00 0 0 0
67 67 8 0.0000000000000000e+00 -5.5353179181694916e+00 -5.5375745619711392e+00 -6.0666804252318274e+00 0 0 0
86 86 8 0.0000000000000000e+00 -9.0582238687080334e+00 -2.6361057348361889e+00 -1.5648362407536496e+00 0 0 0
87 87 8 0.0000000000000000e+00 -5.8262276252689063e+00 -2.3470020899940049e+00 -9.2753811964557631e-01 0 0 0
70 70 8 0.0000000000000000e+00 -7.2204963584284236e+00 -4.8652417539284052e+00 -1.6763269265418304e+00 0 0 0
73 73 8 0.0000000000000000e+00 -8.8965418383255841e+00 -6.5529670423206916e+00 -2.1926383964081797e-01 0 0 0
76 76 8 0.0000000000000000e+00 -3.9961167261636863e+00 -4.9021846402082554e+00 -8.6225975637798769e-01 0 0 0
81 81 8 0.0000000000000000e+00 -7.5831415410175484e+00 -3.3323070859581083e+00 -6.3292380195903073e+00 0 0 0
82 82 8 0.0000000000000000e+00 -7.1898305554900528e+00 -5.8605631456232565e-01 -5.6129331115470542e+00 0 0 0
83 83 8 0.0000000000000000e+00 -5.0568565119734412e+00 -4.6660755250954633e+00 -3.4892820629702856e+00 0 0 0
84 84 8 0.0000000000000000e+00 -5.0028625076729849e+00 -2.5919155241323590e+00 -5.4542101728904395e+00 0 0 0
101 101 8 0.0000000000000000e+00 -7.6327485445507861e+00 -2.0879057296285808e-01 -1.3292661583894940e+00 0 0 0
77 77 8 0.0000000000000000e+00 -8.5287715073095729e+00 -6.8227982032776309e+00 4.6269999949375826e+00 0 0 0
94 94 8 0.0000000000000000e+00 -7.7496807697827439e+00 -1.3867080934222633e+00 6.0172178553625262e+00 0 0 0
15 15 8 0.0000000000000000e+00 -1.1280940016571758e+01 -4.9376209200158314e+00 5.0540631718313964e+00 0 0 0
96 96 8 0.0000000000000000e+00 -4.3456611818914368e+00 -4.6333676028897486e-01 2.1482602964190640e+00 0 0 0
27 27 8 0.0000000000000000e+00 -1.0264952830443564e+01 -1.5968656801326482e+00 7.1493095544525609e-01 0 0 0
95 95 8 0.0000000000000000e+00 -5.9687668242976102e+00 -2.0734698738499233e+00 3.9014609222936460e+00 0 0 0
31 31 8 0.0000000000000000e+00 -1.0402282146588078e+01 -2.3239650729268533e+00 5.3785057991313270e+00 0 0 0
32 32 8 0.0000000000000000e+00 -1.0579031641057833e+01 -3.9604321882355897e-01 3.1753522048256144e+00 0 0 0
93 93 8 0.0000000000000000e+00 -8.6275004850636439e+00 -2.4254208504133707e+00 3.0768912576933705e+00 0 0 0
74 74 8 0.0000000000000000e+00 -9.4150027282376083e+00 -5.4313120054584125e+00 2.4933649759219154e+00 0 0 0
75 75 8 0.0000000000000000e+00 -6.1447661275780447e+00 -6.0396556377957644e+00 4.3799371288868905e-01 0 0 0
68 68 8 0.0000000000000000e+00 -5.3890684207382531e+00 -3.5558789061827105e+00 6.2071314422068902e+00 0 0 -1
12 12 8 0.0000000000000000e+00 -1.0810402477443201e+01 -4.2251790978880290e+00 1.5410401230138415e-01 0 0 0
78 78 8 0.0000000000000000e+00 -8.3092097673009935e+00 -4.1550249705058349e+00 5.4503348304005836e+00 0 0 0
79 79 8 0.0000000000000000e+00 -5.8437100171149439e+00 -6.2226637616872500e+00 5.4078482809709261e+00 0 0 0
80 80 8 0.0000000000000000e+00 -6.8207985228769470e+00 -4.8094677740739638e+00 3.2261773866208063e+00 0 0 0
89 89 8 0.0000000000000000e+00 -7.8429255978432391e+00 -3.7523866900004847e+00 7.3151501137414243e-01 0 0 0
90 90 8 0.0000000000000000e+00 -7.0578028853540431e+00 -1.1295506436457714e+00 1.3900971429029738e+00 0 0 0
91 91 8 0.0000000000000000e+00 -5.0764779441231696e+00 -3.4259012184116791e+00 1.5214349421630207e+00 0 0 0
16 16 8 0.0000000000000000e+00 -1.1373294102634897e+01 -3.3562494007532280e+00 2.8076992800365144e+00 0 0 0
128 128 8 0.0000000000000000e+00 -4.7237013467538720e+00 -6.7838648929700378e+00 2.8164055858748895e+00 0 1 0
321 309 10 -8.3399999999999996e-01 -4.2408607428412850e+00 -4.9724047814155714e-01 6.8207086280799718e+00 0 0 0
323 309 9 4.1699999999999998e-01 -5.1720316982794756e+00 -4.9162317895775498e-01 6.5990154173252975e+00 0 0 0
322 309 9 4.1699999999999998e-01 -3.8437057772012260e+00 -1.0805764000823181e+00 6.1739891411651939e+00 0 0 0
35 35 8 0.0000000000000000e+00 -9.3242367715056726e+00 1.2543067035666180e+00 -5.8365108931831786e+00 0 0 0
120 120 8 0.0000000000000000e+00 -6.6535747347667620e+00 6.3597405576348347e+00 -5.0710743362542301e+00 0 0 0
39 39 8 0.0000000000000000e+00 -9.6028861652013049e+00 1.7683171594215903e+00 -1.6820342437782454e+00 0 0 0
40 40 8 0.0000000000000000e+00 -9.3168971311470621e+00 3.5721544777484766e+00 -3.7626972269115311e+00 0 0 0
51 51 8 0.0000000000000000e+00 -1.1154758675808797e+01 3.4963128286696268e+00 -6.0007706455076759e+00 0 0 0
118 118 8 0.0000000000000000e+00 -6.7378280873780145e+00 5.4757386762017664e+00 -2.1458042950950507e-01 0 0 0
55 55 8 0.0000000000000000e+00 -9.3116443639476714e+00 4.5791253416404452e+00 -1.0601803764611999e+00 0 0 0
103 103 8 0.0000000000000000e+00 -5.0913776675668476e+00 3.4730719476442307e-01 -4.9825057938550010e-01 0 0 0
56 56 8 0.0000000000000000e+00 -1.1348988456683891e+01 5.4926090613991345e+00 -3.6149587844319062e+00 0 0 0
98 98 8 0.0000000000000000e+00 -7.3203655850938993e+00 1.5976925709431704e+00 -3.6395972427321737e+00 0 0 0
99 99 8 0.0000000000000000e+00 -5.3028964307615389e+00 1.4729281488004098e+00 -5.6261422429601602e+00 0 0 0
108 108 8 0.0000000000000000e+00 -4.3022205032711884e+00 3.0920841167469035e+00 -1.3214596914226995e-01 0 0 0
117 117 8 0.0000000000000000e+00 -6.8979783381817974e+00 4.4390166542344822e+00 -2.9355015139327012e+00 0 0 0
102 102 8 0.0000000000000000e+00 -7.1060703855265377e+00 2.7070704626518385e+00 -7.5256240557947063e-01 0 0 0
119 119 8 0.0000000000000000e+00 -4.0750705454194325e+00 4.9861182568114142e+00 -2.4658824389655516e+00 0 0 0
104 104 8 0.0000000000000000e+00 -4.6580009536800393e+00 2.2460916785143343e+00 -2.7891988055290495e+00 0 0 0
113 113 8 0.0000000000000000e+00 -7.4847245906597042e+00 3.4177283193567209e+00 -5.8690443871594065e+00 0 0 0
114 114 8 0.0000000000000000e+00 -9.3413919398877781e+00 5.7390359457763118e+00 -5.6159846898269947e+00 0 0 0
115 115 8 0.0000000000000000e+00 -4.7712173185277162e+00 4.2191986749675809e+00 -5.0292376766926825e+00 0 0 0
69 69 8 0.0000000000000000e+00 -8.7318057782160992e+00 6.5970384763975662e+00 -2.9178046206832020e+00 0 -1 0
7 7 8 0.0000000000000000e+00 -1.1454905150882560e+01 6.9819928991475511e+00 -1.2516986245856607e+00 0 -1 0
72 72 8 0.0000000000000000e+00 -4.0122195294493022e+00 7.0329008107792603e+00 -4.4654262366345812e+00 0 -1 0
37 37 8 0.0000000000000000e+00 -1.1377604012234588e+01 1.6460580554407720e+00 -3.8247821024739612e+00 0 0 0
71 71 8 0.0000000000000000e+00 -6.0461515251050084e+00 7.1231694356884514e+00 -2.3426510645862466e+00 0 -1 0
111 111 8 0.0000000000000000e+00 -5.1394807628835313e+00 1.1103747208833141e+00 4.4966782951656388e+00 0 0 0
126 126 8 0.0000000000000000e+00 -7.6980008840732044e+00 5.4169709678951801e+00 6.5383712676010912e+00 0 0 0
36 36 8 0.0000000000000000e+00 -9.3250645983039462e+00 3.1889391041737856e+00 6.1728713725824118e+00 0 0 -1
127 127 8 0.0000000000000000e+00 -5.8712207467708133e+00 5.6179790384224244e+00 4.5401647546050210e+00 0 0 0
100 100 8 0.0000000000000000e+00 -5.3504739765123670e+00 3.6273310398030212e+00 6.4091827728577258e+00 0 0 -1
60 60 8 0.0000000000000000e+00 -1.0127529106643919e+01 5.7559593739743722e+00 1.3761056699597773e+00 0 0 0
97 97 8 0.0000000000000000e+00 -7.2329060428039273e+00 1.3429764587286552e+00 6.6347366327620865e+00 0 0 -1
64 64 8 0.0000000000000000e+00 -1.1382173549609695e+01 6.9309056625076124e+00 3.8653520948474824e+00 0 0 0
105 105 8 0.0000000000000000e+00 -8.9096409743794602e+00 8.8707386018918477e-01 1.1029995332261411e+00 0 0 0
106 106 8 0.0000000000000000e+00 -9.8392235892844031e+00 2.3715065072360026e+00 3.4929058935250890e+00 0 0 0
107 107 8 0.0000000000000000e+00 -6.2085449772200825e+00 1.6817032607503251e+00 1.8603666021104726e+00 0 0 0
109 109 8 0.0000000000000000e+00 -7.7556553544277680e+00 3.9488666806690365e-01 3.7449347294742203e+00 0 0 0
47 47 8 0.0000000000000000e+00 -9.9215650796274257e+00 4.7073267274151220e-01 5.8071527504028602e+00 0 0 0
110 110 8 0.0000000000000000e+00 -7.2333780329805073e+00 3.1037643693392081e+00 4.2042960095724009e+00 0 0 0
125 125 8 0.0000000000000000e+00 -9.2667531339440945e+00 5.0207092514205254e+00 3.9915631015037860e+00 0 0 0
44 44 8 0.0000000000000000e+00 -1.0773739649283744e+01 3.0504407954110757e+00 8.2930194141142621e-01 0 0 0
121 121 8 0.0000000000000000e+00 -8.1596274059308929e+00 3.7943422203716892e+00 1.6676853388719906e+00 0 0 0
122 122 8 0.0000000000000000e+00 -7.5180781085814008e+00 6.5554106056857915e+00 2.1945844349714729e+00 0 0 0
123 123 8 0.0000000000000000e+00 -5.1795570047037245e+00 4.6607038798427052e+00 2.0582472102172940e+00 0 0 0
124 124 8 0.0000000000000000e+00 -3.9833561817374843e+00 6.4505444822778095e+00 6.7525657629849967e-02 0 0 0
52 52 8 0.0000000000000000e+00 -1.0477885944881500e+01 7.1598881998067370e+00 6.5339690038843514e+00 0 0 -1
116 116 8 0.0000000000000000e+00 -4.8062154091380460e+00 6.2170737464975367e+00 7.1364341598179237e+00 0 0 -1
366 324 10 -8.3399999999999996e-01 2.0948174599632772e+00 -6.0993872243081064e+00 -6.7132918843461820e-01 0 0 0
287 297 9 4.1699999999999998e-01 -2.1376825225082996e+00 -4.3615006578714901e+00 -4.1305681143295310e+00 0 0 0
360 322 10 -8.3399999999999996e-01 -1.3733923360219613e+00 -7.1571742057484036e+00 -6.8711375872684144e+00 0 0 0
507 371 10 -8.3399999999999996e-01 1.6207873523279304e+00 -3.4915037477365876e+00 -3.4357071022624908e-01 0 1 0
290 298 9 4.1699999999999998e-01 -2.5465085342332365e+00 -1.8388150884421588e+00 -2.5178227903551829e+00 0 0 0
368 324 9 4.1699999999999998e-01 2.2300672886210400e+00 -5.2240895379648746e+00 -3.0825812042476652e-01 0 0 0
285 297 10 -8.3399999999999996e-01 -1.8477944942034306e+00 -5.2130493269056632e+00 -4.4578171659579766e+00 0 0 0
382 329 9 4.1699999999999998e-01 -1.8721460141470452e+00 -3.9514800957779839e+00 -1.8375198454264616e+00 0 0 0
475 360 9 4.1699999999999998e-01 1.5749136357396090e+00 -3.0559354494599704e+00 -3.6489650898897175e+00 0 0 1
288 298 10 -8.3399999999999996e-01 -2.5788951690278488e+00 -2.4724501054300161e+00 -3.2345662354421139e+00 0 0 0
436 347 9 4.1699999999999998e-01 1.0932888841913559e+00 -5.1535530902018962e+00 -2.7144260210483582e+00 0 1 1
362 322 9 4.1699999999999998e-01 -1.6537635996177009e+00 -6.2433188761163843e+00 -6.8209395382316398e+00 0 0 0
282 296 10 -8.3399999999999996e-01 -2.6473595456174621e+00 -4.7015086149401828e+00 -6.9983472755999099e+00 0 0 0
301 302 9 4.1699999999999998e-01 2.2363424560253868e+00 -5.7335925622078721e+00 -4.4699559081380755e+00 0 0 1
474 360 10 -8.3399999999999996e-01 1.6512576438490392e+00 -2.1098131863888421e+00 -3.5253347103816908e+00 0 0 1
435 347 10 -8.3399999999999996e-01 6.7589386293375142e-01 -4.7289412459297786e+00 -3.4639234257893894e+00 0 1 1
286 297 9 4.1699999999999998e-01 -2.2632484222150708e+00 -5.2943231833240780e+00 -5.3163356937185426e+00 0 0 0
476 360 9 4.1699999999999998e-01 2.1377715658984364e+00 -1.8061239964441631e+00 -4.2917147209593720e+00 0 0 1
381 329 10 -8.3399999999999996e-01 -1.1634011618416302e+00 -4.5074216053028469e+00 -1.5136843007063616e+00 0 0 0
383 329 9 4.1699999999999998e-01 -7.3960637861216938e-01 -3.9840935895179022e+00 -8.3339931369821763e-01 0 0 0
418 341 9 4.1699999999999998e-01 9.0645803395343449e-01 -3.6502887694594377e+00 -5.8815639778888782e+00 0 1 0
300 302 10 -8.3399999999999996e-01 3.0732019117061249e+00 -5.4618440896528098e+00 -4.8468882308961749e+00 0 0 1
446 350 9 4.1699999999999998e-01 -3.1727143943502867e-01 -2.3085554908654249e-01 -2.0725015617035671e+00 0 0 0
484 363 9 4.1699999999999998e-01 1.4503886543949953e+00 -6.3796511060656078e+00 -6.7038556624458696e+00 0 1 1
437 347 9 4.1699999999999998e-01 -2.0192317062805287e-01 -4.5050893718161777e+00 -3.1547490713743480e+00 0 1 1
292 299 9 4.1699999999999998e-01 -1.3443813533017028e+00 -6.3612938799710248e+00 -1.7706190173376966e+00 0 0 0
445 350 9 4.1699999999999998e-01 6.1132802165951006e-01 -1.4110584629809422e+00 -2.2643038779481097e+00 0 0 0
444 350 10 -8.3399999999999996e-01 3.4143805010607764e-01 -7.5721626265012620e-01 -1.6193929652539190e+00 0 0 0