LAMMPS data file via write_data, version 16 Mar 2018, timestep = 5000

1144 atoms
12 atom types
583 bonds
8 bond types
350 angles
13 angle types
132 dihedrals
18 dihedral types

-1.2224224112434927e+01 1.2224224112434927e+01 xlo xhi
-1.2224224112434927e+01 1.2224224112434927e+01 ylo yhi
-1.2224224112434927e+01 1.2224224112434927e+01 zlo zhi

Masses

1 1.008
2 1.008
3 12.011
4 12.011
5 15.9994
6 15.9994
7 32.06
8 196.966
9 1.008
10 15.9994
11 35.45
12 22.9898

Pair Coeffs # lj/charmmfsw/coul/long

1 0.028 2.38761 0.028 2.38761
2 0.024 2.38761 0.024 2.38761
3 0.056 3.58141 0.01 3.38542
4 0.078 3.63487 0.01 3.38542
5 0.1 2.93997 0.1 2.93997
6 0.12 3.02906 0.12 3.02906
7 0.47 3.74177 0.47 3.74177
8 5.29 2.62904 5.29 2.62904
9 0.046 0.400014 0.046 0.400014
10 0.1521 3.15057 0.1521 3.15057
11 0.15 4.04468 0.15 4.04468
12 0.0469 2.42993 0.0469 2.42993

Bond Coeffs # harmonic/omp

1 222.5 1.53
2 222.5 1.528
3 309 1.111
4 340 1.43
5 322 1.111
6 450 0.9572
7 540 1.448
8 250 1.575

Angle Coeffs # charmm/omp

1 58.35 113.6 11.16 2.561
2 58 115 8 2.561
3 26.5 110.1 22.53 2.179
4 75.7 110.1 0 0
5 34.6 110.1 22.53 2.179
6 15 109 27 1.9
7 34.6 110.1 22.53 2.179
8 35.5 109 5.4 1.802
9 60 109.5 0 0
10 35.5 108.4 5.4 1.802
11 55 104.52 0 0
12 130 109.47 35 2.45
13 85 98 0 0

Dihedral Coeffs # charmmfsw

1 0.101 2 0 1
2 0.142 3 180 0
3 0.074 4 0 0
4 0.097 5 0 0
5 0.162 2 0 1
6 0.047 3 180 0
7 0.105 4 0 0
8 0.177 5 0 0
9 0.19 3 0 1
10 0 3 0 1
11 0.16 3 0 1
12 0 3 0 1
13 0 3 0 1
14 0.19 3 0 1
15 0.19 3 0 1
16 0.19 3 0 1
17 0.16 3 0 1
18 0 3 0 1

Atoms # full

1 1 8 0.0000000000000000e+00 -8.2494686319260815e+00 -1.0384864671435812e+01 -1.1133259952244742e+01 0 0 0
2 2 8 0.0000000000000000e+00 -8.3579114735098550e+00 -8.2303585653163012e+00 -9.2114968653599707e+00 0 0 0
5 5 8 0.0000000000000000e+00 -8.2538661558418909e+00 -1.0383790236777029e+01 -7.0955912464737336e+00 0 0 0
6 6 8 0.0000000000000000e+00 -8.2091857696401984e+00 -8.3418174745658646e+00 -5.1061350712107521e+00 0 0 0
9 9 8 0.0000000000000000e+00 -8.2004854631880093e+00 -1.0436091368169937e+01 -3.2202416960130211e+00 0 0 0
10 10 8 0.0000000000000000e+00 -8.3984401732443867e+00 -8.2931962566838564e+00 -1.0689569940638357e+00 0 0 0
25 25 8 0.0000000000000000e+00 -8.2553939708813644e+00 -6.2531857529395793e+00 -1.1280819455895754e+01 0 0 0
26 26 8 0.0000000000000000e+00 -8.2827458735513098e+00 -4.3736387737224600e+00 -9.1151690497168083e+00 0 0 0
29 29 8 0.0000000000000000e+00 -8.1751931925077752e+00 -6.3848727147155753e+00 -7.1320055552350947e+00 0 0 0
30 30 8 0.0000000000000000e+00 -8.2549584877645117e+00 -4.3075413747560196e+00 -5.0237906071493947e+00 0 0 0
33 33 8 0.0000000000000000e+00 -8.3688024600218807e+00 -6.3713335780492484e+00 -3.0663929992412076e+00 0 0 0
34 34 8 0.0000000000000000e+00 -8.3967800877355909e+00 -4.4007559625110435e+00 -9.4346041707455974e-01 0 0 0
49 49 8 0.0000000000000000e+00 -8.1838088786575778e+00 -2.3874093162125565e+00 -1.1288428507149291e+01 0 0 0
50 50 8 0.0000000000000000e+00 -8.2997741078221718e+00 -2.9750145321104782e-01 -9.3382865292195731e+00 0 0 0
53 53 8 0.0000000000000000e+00 -8.2959566640561171e+00 -2.3988587093152258e+00 -7.0829672964849983e+00 0 0 0
54 54 8 0.0000000000000000e+00 -8.2389678925883967e+00 -3.7131115491611233e-01 -5.1925880887474936e+00 0 0 0
57 57 8 0.0000000000000000e+00 -8.3735659060392837e+00 -2.3409306166144948e+00 -2.9959551834933738e+00 0 0 0
58 58 8 0.0000000000000000e+00 -8.3812260217193266e+00 -2.5044879234947182e-01 -7.4625231511518209e-01 0 0 0
331 579 10 -8.3399999999999996e-01 -1.0737987530517367e+01 -1.0269806555318430e+01 -9.4033803993769425e+00 0 0 0
332 579 9 4.1699999999999998e-01 -1.0993162050663825e+01 -9.7074005466209190e+00 -8.6725252999832225e+00 0 0 0
339 581 9 4.1699999999999998e-01 -1.1043780318362522e+01 -9.6119293596901869e+00 -4.5232534514027662e+00 0 0 0
926 778 10 -8.3399999999999996e-01 -1.1589419126044163e+01 -6.6908528419525641e+00 -9.1157643306392373e+00 1 0 0
371 592 9 4.1699999999999998e-01 -1.0613001395269800e+01 -3.6630146630443310e+00 -3.8593441975108078e+00 0 0 0
875 761 10 -8.3399999999999996e-01 -1.0720040410272004e+01 -8.3362078724192390e+00 -7.2027619239032035e+00 1 0 0
337 581 10 -8.3399999999999996e-01 -1.1112871478778427e+01 -1.0225877702903174e+01 -5.2539074486699091e+00 0 0 0
338 581 9 4.1699999999999998e-01 -1.0879213940768167e+01 -9.7089960106329780e+00 -6.0244900399590229e+00 0 0 0
336 580 9 4.1699999999999998e-01 -1.0715189600968555e+01 -8.8172891331318901e+00 -1.1950321069968361e+01 0 0 0
340 582 10 -8.3399999999999996e-01 -1.0867015658259744e+01 -8.4138250003230937e+00 -3.1131573383666531e+00 0 0 0
456 620 9 4.1699999999999998e-01 -1.0572856944840828e+01 -1.1517720251432090e+01 -1.0766830204202918e+01 0 1 0
369 591 9 4.1699999999999998e-01 -1.1258163193308150e+01 -5.7994541167055660e+00 -5.9272528048857325e+00 0 0 0
343 583 10 -8.3399999999999996e-01 -1.0569735449007490e+01 -1.0370873452912463e+01 -1.2296682485117589e+00 0 0 0
1114 840 9 4.1699999999999998e-01 -1.0648614607157825e+01 -1.1591419869029650e+01 -4.1173180994374654e+00 1 1 0
397 601 10 -8.3399999999999996e-01 -1.0886906065805380e+01 -2.2328375317540203e+00 -5.0550569466585706e+00 0 0 0
366 590 9 4.1699999999999998e-01 -1.1682351002668289e+01 -3.7451463171352000e+00 -1.2005754447542301e+01 0 0 0
398 601 9 4.1699999999999998e-01 -1.0931996324614126e+01 -1.6868933675324680e+00 -4.2705367846980593e+00 0 0 0
393 599 9 4.1699999999999998e-01 -1.1605324493055047e+01 -1.9623094977445721e+00 -9.0334969677197332e+00 0 0 0
876 761 9 4.1699999999999998e-01 -1.0317084349489273e+01 -7.6840563350784707e+00 -6.6301489395706206e+00 1 0 0
953 787 10 -8.3399999999999996e-01 -1.0587769369090402e+01 -2.3720342163933719e+00 -9.4099513862546402e-01 1 0 0
391 599 10 -8.3399999999999996e-01 -1.0903017912106344e+01 -2.5462720473559948e+00 -9.3186535120946985e+00 0 0 0
367 591 10 -8.3399999999999996e-01 -1.0880841713589763e+01 -6.4568044035841226e+00 -5.3432321126627498e+00 0 0 0
368 591 9 4.1699999999999998e-01 -1.0474212970188718e+01 -5.9491204889710261e+00 -4.6414685773032485e+00 0 0 0
341 582 9 4.1699999999999998e-01 -1.1686091320649117e+01 -7.9243220701682011e+00 -3.0420036912511765e+00 0 0 0
370 592 10 -8.3399999999999996e-01 -1.0701488487727786e+01 -4.2595775049525022e+00 -3.1164822785980064e+00 0 0 0
372 592 9 4.1699999999999998e-01 -1.1627189256099058e+01 -4.5016958332889212e+00 -3.1121791440538686e+00 0 0 0
373 593 10 -8.3399999999999996e-01 -1.0748520622689748e+01 -6.2252659079615764e+00 -9.0606117811987374e-01 0 0 0
342 582 9 4.1699999999999998e-01 -1.0243660453395197e+01 -7.9165985767215048e+00 -2.5842382589415731e+00 0 0 0
374 593 9 4.1699999999999998e-01 -1.0754433201904828e+01 -5.6170835383453621e+00 -1.6738655225415933e-01 0 0 0
1113 840 9 4.1699999999999998e-01 -1.0639729378910905e+01 -1.1536353784175605e+01 -2.6049990993569292e+00 1 1 0
365 590 9 4.1699999999999998e-01 -1.0425894146595057e+01 -3.7511125696751630e+00 -1.1162252945575323e+01 0 0 0
334 580 10 -8.3399999999999996e-01 -1.0566099323776740e+01 -8.1413782230473402e+00 -1.1289656694391468e+01 0 0 0
877 761 9 4.1699999999999998e-01 -1.1031650729810472e+01 -7.8345897359632559e+00 -7.9556489401821926e+00 1 0 0
937 781 9 4.1699999999999998e-01 -1.0998432868874428e+01 -3.3723173565157545e+00 -6.3276388647478310e+00 1 0 0
333 579 9 4.1699999999999998e-01 -1.0458475742653214e+01 -9.6620567668612463e+00 -1.0087540817885348e+01 0 0 0
927 778 9 4.1699999999999998e-01 -1.1047510439049727e+01 -6.9743458482090057e+00 -9.8516520446048830e+00 1 0 0
936 781 9 4.1699999999999998e-01 -1.0890462496924812e+01 -3.5472193823036200e+00 -7.8269622114666006e+00 1 0 0
954 787 9 4.1699999999999998e-01 -1.0373241940174225e+01 -1.5699006101936988e+00 -1.4165161369837254e+00 1 0 0
335 580 9 4.1699999999999998e-01 -1.0361401712386298e+01 -7.3542343761153264e+00 -1.1793707443303404e+01 0 0 0
935 781 10 -8.3399999999999996e-01 -1.0944896896951430e+01 -4.0414946424651710e+00 -7.0094720770679722e+00 1 0 0
364 590 10 -8.3399999999999996e-01 -1.1089295346556002e+01 -4.3307436694741472e+00 -1.1535732289188651e+01 0 0 0
392 599 9 4.1699999999999998e-01 -1.0099871571478676e+01 -2.0510010483076098e+00 -9.1598369685640009e+00 0 0 0
399 601 9 4.1699999999999998e-01 -1.1009262701897295e+01 -1.6209839276457725e+00 -5.7804724894879440e+00 0 0 0
375 593 9 4.1699999999999998e-01 -1.0494100794513981e+01 -5.6888370509894770e+00 -1.6564463638189402e+00 0 0 0
928 778 9 4.1699999999999998e-01 -1.1846909406770921e+01 -5.7964943348215128e+00 -9.3379872380486049e+00 1 0 0
995 801 10 -8.3399999999999996e-01 -1.0840296463266686e+01 -3.1729529800246503e-01 -6.8567053305566681e+00 1 0 0
344 583 9 4.1699999999999998e-01 -1.0717457830896771e+01 -9.8945624172564521e+00 -2.0462885331591902e+00 0 0 0
955 787 9 4.1699999999999998e-01 -1.0460370672543213e+01 -3.0717449072148444e+00 -1.5811008865280591e+00 1 0 0
403 603 10 -8.3399999999999996e-01 -1.0770707585492101e+01 -5.2843222761786990e-02 -2.6743712249740490e+00 0 0 0
1105 837 9 4.1699999999999998e-01 -1.0533094473883970e+01 -1.2009013254962964e+01 -6.7439936774431626e+00 1 1 0
345 583 9 4.1699999999999998e-01 -1.0671695398865696e+01 -9.7103882990378807e+00 -5.4488742289596992e-01 0 0 0
1112 840 10 -8.3399999999999996e-01 -1.0719991729433593e+01 -1.2144226224579738e+01 -3.3395819873754231e+00 1 1 0
13 13 8 0.0000000000000000e+00 -8.5182411967778364e+00 -1.0209102632002615e+01 1.0710849850673334e+00 0 0 0
14 14 8 0.0000000000000000e+00 -8.3222094492116732e+00 -8.4279478664000873e+00 3.1460452832584558e+00 0 0 0
17 17 8 0.0000000000000000e+00 -8.1919307077128849e+00 -1.0594533350071897e+01 5.1131502411688015e+00 0 0 0
18 18 8 0.0000000000000000e+00 -8.3996905140553491e+00 -8.5164465060813797e+00 6.9934832652354597e+00 0 0 0
21 21 8 0.0000000000000000e+00 -8.4142894273863913e+00 -1.0363450225815789e+01 9.1247732353601361e+00 0 0 0
22 22 8 0.0000000000000000e+00 -8.3387717409564601e+00 -8.4478955552804251e+00 1.1244077780378989e+01 0 0 0
37 37 8 0.0000000000000000e+00 -8.3164290648572496e+00 -6.4216108862184313e+00 1.1115187109953499e+00 0 0 0
38 38 8 0.0000000000000000e+00 -8.2129836028896577e+00 -4.3180840739027664e+00 3.2754778551092745e+00 0 0 0
41 41 8 0.0000000000000000e+00 -8.4050571389053061e+00 -6.4220484494826193e+00 5.2031159999219856e+00 0 0 0
42 42 8 0.0000000000000000e+00 -8.2936473018621921e+00 -4.3978045292544881e+00 7.1071308685906214e+00 0 0 0
45 45 8 0.0000000000000000e+00 -8.3004516203621144e+00 -6.5085433744958330e+00 9.1290395532796449e+00 0 0 0
46 46 8 0.0000000000000000e+00 -8.2696388127211886e+00 -4.3590178438886600e+00 1.1063375713204541e+01 0 0 0
61 61 8 0.0000000000000000e+00 -8.3616182419424678e+00 -2.2484594033608847e+00 1.1463779006371535e+00 0 0 0
62 62 8 0.0000000000000000e+00 -8.3915894668252893e+00 -2.8202419872962992e-01 3.1236791752755728e+00 0 0 0
65 65 8 0.0000000000000000e+00 -8.3117733672389882e+00 -2.2573381374283947e+00 5.1937818569375072e+00 0 0 0
66 66 8 0.0000000000000000e+00 -8.3044024361603306e+00 -1.2605548878602768e-01 7.0869294579266313e+00 0 0 0
69 69 8 0.0000000000000000e+00 -8.3291058719773368e+00 -2.1609634614720150e+00 9.0311099616676795e+00 0 0 0
70 70 8 0.0000000000000000e+00 -8.2421416775916683e+00 -2.4522043159599782e-01 1.1130395885933202e+01 0 0 0
346 584 10 -8.3399999999999996e-01 -1.1122018825700566e+01 -1.0797887461784700e+01 3.2184079122152003e+00 0 0 0
347 584 9 4.1699999999999998e-01 -1.0332917701247309e+01 -1.1285756413781231e+01 2.9841673115275320e+00 0 0 0
888 765 9 4.1699999999999998e-01 -1.0735403621991217e+01 -7.8716502246304962e+00 1.5398866838984642e+00 1 0 0
887 765 10 -8.3399999999999996e-01 -1.0791359040499072e+01 -8.2937402065612478e+00 6.8299003009812331e-01 1 0 0
1033 813 9 4.1699999999999998e-01 -1.0959933723184642e+01 -1.2042448575850919e+00 1.0361681514108545e+01 1 0 0
968 792 10 -8.3399999999999996e-01 -1.1056146586835265e+01 -4.1596814106967894e+00 9.5007870829571655e+00 1 0 0
352 586 10 -8.3399999999999996e-01 -1.0938385042195517e+01 -1.0587433896201164e+01 7.0860849785344922e+00 0 0 0
386 597 9 4.1699999999999998e-01 -1.0673695293647576e+01 -5.5708375420574665e+00 8.1550146794459710e+00 0 0 0
959 789 10 -8.3399999999999996e-01 -1.0574611109844628e+01 -2.6050869918497401e+00 3.1509414452408357e+00 1 0 0
361 589 10 -8.3399999999999996e-01 -1.0701923581010222e+01 -6.3011209465383118e+00 1.1253185661349784e+01 0 0 -1
360 588 9 4.1699999999999998e-01 -1.0317425805926863e+01 -8.0386940210402109e+00 8.9377534751144889e+00 0 0 0
378 594 9 4.1699999999999998e-01 -1.0614648915046534e+01 -3.5501509082256089e+00 2.8193734875805099e-01 0 0 0
961 789 9 4.1699999999999998e-01 -1.1461057396349709e+01 -2.5919001466694613e+00 2.7909423371127584e+00 1 0 0
359 588 9 4.1699999999999998e-01 -1.1820070019263756e+01 -8.1319005436003700e+00 8.7841689507078886e+00 0 0 0
473 626 9 4.1699999999999998e-01 -1.1415354980122583e+01 -1.2151674695989406e+01 5.9752311402232028e+00 0 1 0
376 594 10 -8.3399999999999996e-01 -1.0704813605526775e+01 -4.2390076243166490e+00 9.3989428401970443e-01 0 0 0
377 594 9 4.1699999999999998e-01 -1.0478922525945567e+01 -3.8126029309872340e+00 1.7661586627342327e+00 0 0 0
1010 806 10 -8.3399999999999996e-01 -1.0782314787087111e+01 -4.7146721366791411e-01 1.0869903520573541e+00 1 0 0
379 595 10 -8.3399999999999996e-01 -1.0638965032480803e+01 -8.5995211760208292e+00 5.0784450285045590e+00 0 0 0
380 595 9 4.1699999999999998e-01 -1.0179021611464576e+01 -7.7700640891035500e+00 5.2049937319056365e+00 0 0 0
387 597 9 4.1699999999999998e-01 -1.0230810056864446e+01 -5.7827972760422970e+00 6.7235326226409402e+00 0 0 0
382 596 10 -8.3399999999999996e-01 -1.1062855370454198e+01 -2.5667002870857925e+00 6.8590986194647758e+00 0 0 0
383 596 9 4.1699999999999998e-01 -1.1760140927124260e+01 -1.9699314982283500e+00 7.1296915051251322e+00 0 0 0
1011 806 9 4.1699999999999998e-01 -1.0493206415892953e+01 -1.0793347917515632e+00 4.0693501218136241e-01 1 0 0
385 597 10 -8.3399999999999996e-01 -1.0726427683434032e+01 -6.1942796878109041e+00 7.4310675132980908e+00 0 0 0
889 765 9 4.1699999999999998e-01 -1.0699303058147901e+01 -7.5768490469008931e+00 5.5969238108518837e-02 1 0 0
381 595 9 4.1699999999999998e-01 -1.0793064934127754e+01 -8.6469183327826560e+00 4.1352765369224809e+00 0 0 0
348 584 9 4.1699999999999998e-01 -1.1491704890869070e+01 -1.1280193089123436e+01 3.9575146418898814e+00 0 0 0
384 596 9 4.1699999999999998e-01 -1.0259296120544606e+01 -2.1576092495350316e+00 7.1792524306946479e+00 0 0 0
950 786 10 -8.3399999999999996e-01 -1.0913785814622541e+01 -6.5188531874759690e+00 2.8093747534987799e+00 1 0 0
963 790 9 4.1699999999999998e-01 -1.1041023473585707e+01 -4.3772339871844572e+00 5.8305164825347386e+00 1 0 0
356 587 9 4.1699999999999998e-01 -1.0921808037218304e+01 -9.9996646632064632e+00 1.0478661764853415e+01 0 0 0
962 790 10 -8.3399999999999996e-01 -1.0826881652365641e+01 -4.7562754890301484e+00 4.9784419807329474e+00 1 0 0
362 589 9 4.1699999999999998e-01 -1.0570038422589269e+01 -5.8580651199550422e+00 1.0415410114831966e+01 0 0 -1
357 587 9 4.1699999999999998e-01 -1.0644381465625406e+01 -1.1146808758533155e+01 1.1425926811189834e+01 0 0 0
355 587 10 -8.3399999999999996e-01 -1.0820353432517038e+01 -1.0206463134053349e+01 1.1407371445889909e+01 0 0 0
970 792 9 4.1699999999999998e-01 -1.0779061555568166e+01 -3.2918378692946444e+00 9.7934183551462173e+00 1 0 0
354 586 9 4.1699999999999998e-01 -1.0942119066974930e+01 -9.8260891556879848e+00 7.6656551812742659e+00 0 0 0
358 588 10 -8.3399999999999996e-01 -1.1042641564650800e+01 -8.6626277078789666e+00 8.9559058815386781e+00 0 0 0
964 790 9 4.1699999999999998e-01 -1.0848283215744932e+01 -4.0149226921935774e+00 4.3738775697823922e+00 1 0 0
1032 813 9 4.1699999999999998e-01 -1.1039397484836739e+01 -1.5320684155595377e+00 1.1836955109456591e+01 1 0 0
409 605 10 -8.3399999999999996e-01 -1.0676987198829980e+01 -2.2323352625507731e-01 5.3661210317206649e+00 0 0 0
951 786 9 4.1699999999999998e-01 -1.0861540791065520e+01 -5.7406637467306707e+00 2.2550686533526267e+00 1 0 0
960 789 9 4.1699999999999998e-01 -1.0441680395416959e+01 -1.7216448485422422e+00 3.4936103462862089e+00 1 0 0
353 586 9 4.1699999999999998e-01 -1.0805239948785120e+01 -1.0222586862302110e+01 6.2116017018460479e+00 0 0 0
363 589 9 4.1699999999999998e-01 -1.0948002712026852e+01 -5.6018881939969365e+00 1.1858230580489108e+01 0 0 -1
1031 813 10 -8.3399999999999996e-01 -1.0838001994452032e+01 -1.9194488261309264e+00 1.0985523011655927e+01 1 0 0
952 786 9 4.1699999999999998e-01 -1.0851894350550362e+01 -6.1816678102228950e+00 3.7027057369630505e+00 1 0 0
1138 848 9 4.1699999999999998e-01 -1.1050214592507357e+01 -1.1573971514642093e+01 8.3895772725998103e+00 1 1 0
969 792 9 4.1699999999999998e-01 -1.1875829992560149e+01 -4.0044674347729234e+00 9.0321845149837845e+00 1 0 0
1012 806 9 4.1699999999999998e-01 -1.1489498637495872e+01 -9.3325473748450172e-01 1.5366607146968754e+00 1 0 0
351 585 9 4.1699999999999998e-01 -1.1722029370899190e+01 -1.2131490105074599e+01 9.4088904316396871e-01 0 0 0
1136 848 10 -8.3399999999999996e-01 -1.1179139181485247e+01 -1.2207999759093155e+01 9.0945259144711965e+00 1 1 0
350 585 9 4.1699999999999998e-01 -1.0599275880400183e+01 -1.1635548888972233e+01 5.5631162444193194e-02 0 0 0
73 73 8 0.0000000000000000e+00 -8.4180184417456250e+00 1.7449013647903087e+00 -1.1220245381940742e+01 0 0 0
74 74 8 0.0000000000000000e+00 -8.2940002728927986e+00 3.8311095622524025e+00 -9.1554739152231761e+00 0 0 0
77 77 8 0.0000000000000000e+00 -8.2886461226430850e+00 1.7001328056948157e+00 -7.2273504009999421e+00 0 0 0
78 78 8 0.0000000000000000e+00 -8.2354708821053499e+00 3.7290831969649183e+00 -5.0671988453583889e+00 0 0 0
81 81 8 0.0000000000000000e+00 -8.3275484994583024e+00 1.6450763072939161e+00 -3.1362716844775758e+00 0 0 0
82 82 8 0.0000000000000000e+00 -8.3959653984767169e+00 3.8143902989048666e+00 -9.8672170142087801e-01 0 0 0
97 97 8 0.0000000000000000e+00 -8.3043353801599977e+00 5.9162347272632072e+00 -1.1065464143370761e+01 0 0 0
98 98 8 0.0000000000000000e+00 -8.3839148941330652e+00 7.9173686167626105e+00 -9.0484708634820201e+00 0 0 0
101 101 8 0.0000000000000000e+00 -8.4404956755153187e+00 5.8187280956823368e+00 -7.2114512745434975e+00 0 0 0
102 102 8 0.0000000000000000e+00 -8.3135306682195615e+00 7.7053797709753926e+00 -5.1813761754608390e+00 0 0 0
105 105 8 0.0000000000000000e+00 -8.4441372289176169e+00 5.8863166358355254e+00 -2.9777724181338030e+00 0 0 0
106 106 8 0.0000000000000000e+00 -8.2690345094797326e+00 8.0793640509114635e+00 -1.1054767781839328e+00 0 0 0
121 121 8 0.0000000000000000e+00 -8.5134603652138114e+00 9.9824522941907592e+00 -1.1133499273854689e+01 0 0 0
122 122 8 0.0000000000000000e+00 -8.2848879416560397e+00 1.1963468894531134e+01 -9.1399509027490957e+00 0 0 0
125 125 8 0.0000000000000000e+00 -8.1086382305377374e+00 9.9124398728465533e+00 -7.0772967206387261e+00 0 0 0
126 126 8 0.0000000000000000e+00 -8.2869905816480856e+00 1.1965372909763429e+01 -5.0736556430488751e+00 0 0 0
129 129 8 0.0000000000000000e+00 -8.4229549942252024e+00 9.9375177876448380e+00 -3.1903553430635920e+00 0 0 0
130 130 8 0.0000000000000000e+00 -8.3411738490292180e+00 1.1986252313782716e+01 -1.1129408043863371e+00 0 0 0
461 622 9 4.1699999999999998e-01 -1.0686515828724811e+01 1.0668250032618319e+01 -5.8244041593202667e+00 0 0 0
1141 849 9 4.1699999999999998e-01 -1.0595328219679326e+01 8.6104659347474932e+00 -1.1729209066406433e+01 1 0 1
464 623 9 4.1699999999999998e-01 -1.0565088805950937e+01 8.4704168704566900e+00 -3.9015705688769255e+00 0 0 0
395 600 9 4.1699999999999998e-01 -1.0699117624418745e+01 2.3342744970098117e+00 -8.4276331184327571e+00 0 0 0
466 624 10 -8.3399999999999996e-01 -1.1061521296932238e+01 1.0006680872796691e+01 -1.3802624026204882e+00 0 0 0
465 623 9 4.1699999999999998e-01 -1.0912607082705527e+01 8.4548454954282466e+00 -2.4287489671746236e+00 0 0 0
1139 849 10 -8.3399999999999996e-01 -1.1008966896790612e+01 7.9987969539028843e+00 -1.1120665966361392e+01 1 0 1
422 609 9 4.1699999999999998e-01 -1.0873624232085334e+01 4.5204976195501754e+00 -1.0389325137262855e+01 0 0 0
1140 849 9 4.1699999999999998e-01 -1.1222747003068646e+01 8.5304564104996441e+00 -1.0354376272511169e+01 1 0 1
424 610 10 -8.3399999999999996e-01 -1.1501517232252269e+01 9.6219466196763808e+00 -9.1206549109980664e+00 0 0 0
425 610 9 4.1699999999999998e-01 -1.1068841923671920e+01 1.0215657682391994e+01 -8.5075809174624890e+00 0 0 0
454 620 10 -8.3399999999999996e-01 -1.0815356697618576e+01 1.2083652491725152e+01 -1.1139949671912175e+01 0 0 0
427 611 10 -8.3399999999999996e-01 -1.1110332045952580e+01 3.5582716259357969e+00 -6.9493045508814895e+00 0 0 0
428 611 9 4.1699999999999998e-01 -1.2052252203071101e+01 3.5593231461659567e+00 -6.7809418807036614e+00 0 0 0
429 611 9 4.1699999999999998e-01 -1.0776937571289150e+01 4.3047773131931155e+00 -6.4521739733418730e+00 0 0 0
430 612 10 -8.3399999999999996e-01 -1.1142532989866831e+01 5.4924336783200918e+00 -5.1240651497791534e+00 0 0 0
431 612 9 4.1699999999999998e-01 -1.1115342441991706e+01 4.6645514211084542e+00 -4.6450745118430747e+00 0 0 0
432 612 9 4.1699999999999998e-01 -1.0588698046195320e+01 6.0829659727593590e+00 -4.6140658253963975e+00 0 0 0
983 797 10 -8.3399999999999996e-01 -1.1265275589390402e+01 3.3711115242004652e-02 -1.1546926217027019e+01 1 0 0
435 613 9 4.1699999999999998e-01 -1.0759268728731691e+01 4.3989015696079523e+00 -2.4481760810961717e+00 0 0 0
1051 819 9 4.1699999999999998e-01 -1.0635506903351768e+01 6.4591857738851441e+00 -8.5134242841327072e+00 1 0 0
436 614 10 -8.3399999999999996e-01 -1.1086264202951027e+01 5.1330590176636246e+00 -8.0573787266499153e-01 0 0 0
985 797 9 4.1699999999999998e-01 -1.0916611051156000e+01 4.0065213844888348e-01 -1.0734924231413881e+01 1 0 0
463 623 10 -8.3399999999999996e-01 -1.0773932071780546e+01 7.8781925697376547e+00 -3.1796173337058296e+00 0 0 0
458 621 9 4.1699999999999998e-01 -1.0736167812799598e+01 8.3503531543606275e+00 -6.3750078593024710e+00 0 0 0
1104 837 9 4.1699999999999998e-01 -1.0108390620602531e+01 1.1872931638673768e+01 -8.0814971503181052e+00 1 0 0
433 613 10 -8.3399999999999996e-01 -1.0597608607959593e+01 3.6767136802118543e+00 -3.0547004616844511e+00 0 0 0
457 621 10 -8.3399999999999996e-01 -1.0786740299473355e+01 7.6292042768572852e+00 -7.0018636128886786e+00 0 0 0
455 620 9 4.1699999999999998e-01 -1.1495781332421547e+01 1.1750111521075988e+01 -1.0555711054766601e+01 0 0 0
434 613 9 4.1699999999999998e-01 -1.0314137629636049e+01 2.9532996029406533e+00 -2.4962414941741979e+00 0 0 0
460 622 10 -8.3399999999999996e-01 -1.0894830365869465e+01 1.0054240283071332e+01 -5.1207293771870361e+00 0 0 0
1009 805 9 4.1699999999999998e-01 -1.0645978816573932e+01 2.1682949289275832e+00 -6.4028868948629025e-03 1 0 0
462 622 9 4.1699999999999998e-01 -1.0708108886002371e+01 1.0538375621064938e+01 -4.3167946693578436e+00 0 0 0
1050 819 9 4.1699999999999998e-01 -1.0818319046151066e+01 6.5726056506663095e+00 -1.0011401473355471e+01 1 0 0
421 609 10 -8.3399999999999996e-01 -1.0803714906229471e+01 3.7886422727924529e+00 -1.1001748723971749e+01 0 0 0
394 600 10 -8.3399999999999996e-01 -1.0803110599877325e+01 1.5546687924443763e+00 -8.9725750035525351e+00 0 0 0
1049 819 10 -8.3399999999999996e-01 -1.0907225989165944e+01 5.9590403517616739e+00 -9.2825696997909066e+00 1 0 0
1052 820 10 -8.3399999999999996e-01 -1.1016338971964691e+01 1.5043236438162815e+00 -4.8448912637411707e+00 1 0 0
468 624 9 4.1699999999999998e-01 -1.1244657286511073e+01 1.0561492612445980e+01 -2.1380258145200930e+00 0 0 0
997 801 9 4.1699999999999998e-01 -1.1069594473541958e+01 2.2851554335519708e-01 -7.6084188725938349e+00 1 0 0
1007 805 10 -8.3399999999999996e-01 -1.1005308337966170e+01 1.9274508458235182e+00 -8.5988795050032785e-01 1 0 0
1103 837 10 -8.3399999999999996e-01 -1.0496774593676417e+01 1.1623944607476750e+01 -7.2432105757984493e+00 1 0 0
1053 820 9 4.1699999999999998e-01 -1.0633898877696618e+01 2.3812136656754692e+00 -4.8639628747970223e+00 1 0 0
437 614 9 4.1699999999999998e-01 -1.1051372234833041e+01 6.0892535791182762e+00 -7.9964603265961465e-01 0 0 0
405 603 9 4.1699999999999998e-01 -1.1233789101794331e+01 5.4179914855147793e-01 -2.0848654864681038e+00 0 0 0
1008 805 9 4.1699999999999998e-01 -1.1815107388916276e+01 2.4322485458215137e+00 -9.3035220127433504e-01 1 0 0
1054 820 9 4.1699999999999998e-01 -1.1929856801296230e+01 1.6463298625743725e+00 -4.5981529920230999e+00 1 0 0
459 621 9 4.1699999999999998e-01 -1.1035505156360349e+01 6.8702726013792610e+00 -6.4748907983603479e+00 0 0 0
467 624 9 4.1699999999999998e-01 -1.1162089847338551e+01 1.0588318113148025e+01 -6.2717263035341375e-01 0 0 0
396 600 9 4.1699999999999998e-01 -1.1726313807315680e+01 1.5591522384573402e+00 -9.2240465601313399e+00 0 0 0
984 797 9 4.1699999999999998e-01 -1.1170543924951566e+01 7.3742999784640340e-01 -1.2188304281542417e+01 1 0 0
404 603 9 4.1699999999999998e-01 -1.0542877912940353e+01 4.8786279159625678e-01 -3.4302089107942972e+00 0 0 0
996 801 9 4.1699999999999998e-01 -1.0674763873712459e+01 3.0564733416594514e-01 -6.1495232971845981e+00 1 0 0
423 609 9 4.1699999999999998e-01 -1.0997080940753062e+01 3.0145513746044763e+00 -1.0473586920075833e+01 0 0 0
85 85 8 0.0000000000000000e+00 -8.2980900219037910e+00 1.7781329691897376e+00 1.1176920293451431e+00 0 0 0
86 86 8 0.0000000000000000e+00 -8.2228824058306298e+00 3.9720337055073731e+00 3.0915638259701090e+00 0 0 0
89 89 8 0.0000000000000000e+00 -8.2816429442390920e+00 1.9060442685195582e+00 5.0438206475033045e+00 0 0 0
90 90 8 0.0000000000000000e+00 -8.2384000949818201e+00 3.7461323859788909e+00 7.1461797394615569e+00 0 0 0
93 93 8 0.0000000000000000e+00 -8.3085109949444931e+00 1.8024113762015883e+00 9.2217594445940829e+00 0 0 0
94 94 8 0.0000000000000000e+00 -8.3772906281402832e+00 3.9404583159257509e+00 1.1296346238025036e+01 0 0 0
109 109 8 0.0000000000000000e+00 -8.2255271323137897e+00 5.8506348397111996e+00 1.0050180506357123e+00 0 0 0
110 110 8 0.0000000000000000e+00 -8.3368432684152225e+00 7.8943183711331262e+00 3.0272239900627973e+00 0 0 0
113 113 8 0.0000000000000000e+00 -8.2671620862650599e+00 5.8593187073173905e+00 5.1137175620353705e+00 0 0 0
114 114 8 0.0000000000000000e+00 -8.3233681197190066e+00 7.9598111724630893e+00 7.0361825454741602e+00 0 0 0
117 117 8 0.0000000000000000e+00 -8.3513593372148254e+00 5.9469598839018882e+00 9.1104194430695475e+00 0 0 0
118 118 8 0.0000000000000000e+00 -8.3026379064252005e+00 7.8734917929040531e+00 1.1160756764780364e+01 0 0 0
133 133 8 0.0000000000000000e+00 -8.2418804316678376e+00 9.9411373721933547e+00 1.0316687050295084e+00 0 0 0
134 134 8 0.0000000000000000e+00 -8.3751649347678843e+00 1.1969735644973321e+01 3.0567528686162753e+00 0 0 0
137 137 8 0.0000000000000000e+00 -8.2621296850543704e+00 9.9032714827488189e+00 5.0677341678161572e+00 0 0 0
138 138 8 0.0000000000000000e+00 -8.3146249979374769e+00 1.2064402664948430e+01 7.2501945878692897e+00 0 0 0
141 141 8 0.0000000000000000e+00 -8.3147381220992802e+00 9.9726547499644962e+00 9.2187562970660029e+00 0 0 0
414 606 9 4.1699999999999998e-01 -1.0549293034236644e+01 3.0907376255272911e+00 5.4598824707648514e+00 0 0 0
406 604 10 -8.3399999999999996e-01 -1.0753113811373321e+01 1.4653130591730754e+00 2.9941253870716444e+00 0 0 0
479 628 9 4.1699999999999998e-01 -1.1024649063530592e+01 1.0528259344250229e+01 1.2175014833740919e+01 0 0 0
420 608 9 4.1699999999999998e-01 -1.1297916491752272e+01 2.9810582091846083e+00 1.0242200931541150e+01 0 0 0
412 606 10 -8.3399999999999996e-01 -1.0964550185886317e+01 3.9234242661807297e+00 5.2368248642055359e+00 0 0 0
474 626 9 4.1699999999999998e-01 -1.1819540966217343e+01 1.0862863968894656e+01 5.7092367103245767e+00 0 0 0
478 628 10 -8.3399999999999996e-01 -1.0957107294519687e+01 1.0124130422298967e+01 1.1310328145696245e+01 0 0 0
1020 809 9 4.1699999999999998e-01 -1.0665091692190826e+01 2.8030292402208321e+00 7.6983248554574164e+00 1 0 0
419 608 9 4.1699999999999998e-01 -1.0461591115025659e+01 2.5658747890027112e+00 1.1433170740635321e+01 0 0 0
1060 822 9 4.1699999999999998e-01 -1.1032294206594178e+01 4.7650740704963237e+00 2.0618778941623930e+00 1 0 0
471 625 9 4.1699999999999998e-01 -1.0362856075164599e+01 8.3195199643175481e+00 3.1255323548749381e-01 0 0 0
1070 826 10 -8.3399999999999996e-01 -1.1013325299436326e+01 6.2961555911675386e+00 6.8420362586158934e+00 1 0 0
470 625 9 4.1699999999999998e-01 -1.1372108478125600e+01 8.2432406869866650e+00 1.4376344266636618e+00 0 0 0
439 615 10 -8.3399999999999996e-01 -1.1124516895215889e+01 6.2820193992959208e+00 3.2388646393502647e+00 0 0 0
440 615 9 4.1699999999999998e-01 -1.0894268042028425e+01 6.8678990210814757e+00 3.9594835014414951e+00 0 0 0
480 628 9 4.1699999999999998e-01 -1.0481186910427203e+01 1.0764863645343739e+01 1.0782572793509290e+01 0 0 0
442 616 10 -8.3399999999999996e-01 -1.0702457502353017e+01 8.2831060815710931e+00 5.1024408465030913e+00 0 0 0
443 616 9 4.1699999999999998e-01 -1.0956257116093338e+01 8.6987937314886512e+00 5.9260611191182608e+00 0 0 0
1059 822 9 4.1699999999999998e-01 -1.0234565406820506e+01 3.4843183255037555e+00 2.1781214923728207e+00 1 0 0
445 617 10 -8.3399999999999996e-01 -1.1141387915313949e+01 4.3835201295185282e+00 9.1034782756964905e+00 0 0 0
446 617 9 4.1699999999999998e-01 -1.0812649204550942e+01 5.0142098815113325e+00 9.7435765957659886e+00 0 0 0
1134 847 9 4.1699999999999998e-01 -1.1391814545064481e+01 8.7919288028009728e+00 1.0312553996839933e+01 1 0 0
408 604 9 4.1699999999999998e-01 -1.0830258996466911e+01 1.0783468237411693e+00 2.1224225318808276e+00 0 0 0
413 606 9 4.1699999999999998e-01 -1.0511572201255158e+01 4.2129561050223732e+00 4.4452800079958745e+00 0 0 0
1071 826 9 4.1699999999999998e-01 -1.0870802616858105e+01 5.5137554426475806e+00 6.3099671228789180e+00 1 0 0
1019 809 10 -8.3399999999999996e-01 -1.0923554202526880e+01 1.9445716338396899e+00 7.3639401176667203e+00 1 0 0