LAMMPS data file via write_data, version 16 Mar 2018, timestep = 5000

714 atoms
12 atom types
403 bonds
8 bond types
260 angles
13 angle types
132 dihedrals
18 dihedral types

-1.8881329391825421e+01 1.8881329391825421e+01 xlo xhi
-7.0804986655160684e+00 7.0804986655160684e+00 ylo yhi
-7.0804986655160684e+00 7.0804986655160684e+00 zlo zhi

Masses

1 1.008
2 1.008
3 12.011
4 12.011
5 15.9994
6 15.9994
7 32.06
8 196.966
9 1.008
10 15.9994
11 35.45
12 22.9898

Pair Coeffs # lj/charmmfsw/coul/long

1 0.028 2.38761 0.028 2.38761
2 0.024 2.38761 0.024 2.38761
3 0.056 3.58141 0.01 3.38542
4 0.078 3.63487 0.01 3.38542
5 0.1 2.93997 0.1 2.93997
6 0.12 3.02906 0.12 3.02906
7 0.47 3.74177 0.47 3.74177
8 5.29 2.62904 5.29 2.62904
9 0.046 0.400014 0.046 0.400014
10 0.1521 3.15057 0.1521 3.15057
11 0.15 4.04468 0.15 4.04468
12 0.0469 2.42993 0.0469 2.42993

Bond Coeffs # harmonic

1 222.5 1.53
2 222.5 1.528
3 309 1.111
4 340 1.43
5 322 1.111
6 450 0.9572
7 540 1.448
8 250 1.575

Angle Coeffs # charmm

1 58.35 113.6 11.16 2.561
2 58 115 8 2.561
3 26.5 110.1 22.53 2.179
4 75.7 110.1 0 0
5 34.6 110.1 22.53 2.179
6 15 109 27 1.9
7 34.6 110.1 22.53 2.179
8 35.5 109 5.4 1.802
9 60 109.5 0 0
10 35.5 108.4 5.4 1.802
11 55 104.52 0 0
12 130 109.47 35 2.45
13 85 98 0 0

Dihedral Coeffs # charmmfsw

1 0.101 2 0 1
2 0.142 3 180 0
3 0.074 4 0 0
4 0.097 5 0 0
5 0.162 2 0 1
6 0.047 3 180 0
7 0.105 4 0 0
8 0.177 5 0 0
9 0.19 3 0 1
10 0 3 0 1
11 0.16 3 0 1
12 0 3 0 1
13 0 3 0 1
14 0.19 3 0 1
15 0.19 3 0 1
16 0.19 3 0 1
17 0.16 3 0 1
18 0 3 0 1

Atoms # full

1 1 8 0.0000000000000000e+00 -1.2903738906510535e+01 -5.3575173404883962e+00 -5.6138080057822934e+00 0 0 0
2 2 8 0.0000000000000000e+00 -1.1929962957054830e+01 -4.6884101940672966e+00 -3.0566979419109881e+00 0 0 0
4 4 8 0.0000000000000000e+00 -1.0048945681447041e+01 -4.8506466588291222e+00 -5.8231154888556809e+00 0 0 0
6 6 8 0.0000000000000000e+00 -1.4228374842201173e+01 -5.5405960711870108e+00 -1.7197755326581792e+00 0 0 0
7 7 8 0.0000000000000000e+00 -1.1554311373628739e+01 -6.8437702520035693e+00 -1.2819059207323278e+00 0 0 0
18 18 8 0.0000000000000000e+00 -1.1957716342336575e+01 -2.6077020683434879e+00 -5.1172379016209728e+00 0 0 0
21 21 8 0.0000000000000000e+00 -1.4717899355442913e+01 -3.7636637307184158e+00 -3.9564904848721962e+00 0 0 0
23 23 8 0.0000000000000000e+00 -1.3236743652936063e+01 -2.2574002459982818e+00 -1.9875062666758732e+00 0 0 0
24 24 8 0.0000000000000000e+00 -1.1559426410601926e+01 -4.2433726232179581e-01 -3.3001903760559741e+00 0 0 0
179 261 9 4.1699999999999998e-01 -1.6302356815542478e+01 -5.3210284062732383e+00 -5.0735968369299087e+00 0 0 0
180 262 10 -8.3399999999999996e-01 -1.6408351437396423e+01 -1.4834340618612423e+00 -2.7392724293793025e+00 0 0 0
181 262 9 4.1699999999999998e-01 -1.6149386907333355e+01 -5.8954528288620711e-01 -2.9633334357427108e+00 0 0 0
186 264 10 -8.3399999999999996e-01 -1.7547652919267374e+01 -5.3057302296157554e+00 -1.4134111347648011e+00 0 0 0
187 264 9 4.1699999999999998e-01 -1.7455947295727004e+01 -5.9746748977727897e+00 -2.0919435240954734e+00 0 0 0
188 264 9 4.1699999999999998e-01 -1.7875959016766455e+01 -4.5359458752410600e+00 -1.8781156091111635e+00 0 0 0
12 12 8 0.0000000000000000e+00 -1.2077441608873693e+01 -4.1764631626491191e+00 -2.7066172036514402e-01 0 0 0
25 25 8 0.0000000000000000e+00 -1.4819038622952750e+01 -3.0463063871087463e+00 1.3209220529227128e-01 0 0 0
28 28 8 0.0000000000000000e+00 -1.2385429031367355e+01 1.0957235249762309e-01 -5.7387264940705673e-01 0 0 0
19 19 8 0.0000000000000000e+00 -9.7390953340237818e+00 -2.9855702310647088e+00 -3.5268000322428268e+00 0 0 0
37 37 8 0.0000000000000000e+00 -1.4112368161621333e+01 -1.0511852075946262e+00 -4.5845676373621709e+00 0 0 0
86 86 8 0.0000000000000000e+00 -1.0437244492559875e+01 -1.9311618559703501e+00 -9.7369266015710210e-01 0 0 0
177 261 10 -8.3399999999999996e-01 -1.6081135215804565e+01 -5.5783699974808947e+00 -5.9686607516995993e+00 0 0 0
258 288 10 -8.3399999999999996e-01 -1.6313727565503815e+01 7.0411301626228928e+00 -3.5505938824905394e+00 0 0 0
198 268 10 -8.3399999999999996e-01 -1.7024205438916052e+01 -2.1132940414585404e+00 -5.7761633464804607e+00 0 0 1
199 268 9 4.1699999999999998e-01 -1.6072186857378412e+01 -2.0585239113346177e+00 -5.8596135839434851e+00 0 0 1
200 268 9 4.1699999999999998e-01 -1.7357210304010966e+01 -1.8019521689510754e+00 -6.6178741571058479e+00 0 0 1
182 262 9 4.1699999999999998e-01 -1.6929171789314893e+01 -1.7769457171766341e+00 -3.4868686961398714e+00 0 0 0
17 17 8 0.0000000000000000e+00 -1.4070374214546742e+01 -3.0382280931076808e+00 -6.8140822372305099e+00 0 0 0
176 260 9 4.1699999999999998e-01 -1.7882361938285509e+01 -3.4120336914942078e+00 -4.4610330286831914e+00 0 0 0
174 260 10 -8.3399999999999996e-01 -1.8285050269835253e+01 -3.9983016938592493e+00 -3.8203809941458289e+00 0 0 0
3 3 8 0.0000000000000000e+00 -9.9881206201158381e+00 -6.7795671256607921e+00 -3.6115743469143826e+00 0 0 0
260 288 9 4.1699999999999998e-01 -1.6213564363192305e+01 6.6106603702027842e+00 -2.7014966064088473e+00 0 0 0
175 260 9 4.1699999999999998e-01 -1.8437729832724742e+01 -4.8114273956182920e+00 -4.3018564707502769e+00 0 0 0
184 263 9 4.1699999999999998e-01 -1.8166665237691017e+01 -1.5061210882022280e+00 1.4934761567233590e-01 0 0 0
33 33 8 0.0000000000000000e+00 -1.3375456778057282e+01 -3.2171169624636953e-01 6.9678483007955174e+00 0 0 -1
699 435 9 4.1699999999999998e-01 -1.7778905613993782e+01 5.8448448613966510e+00 6.7186751621094754e-01 1 0 0
20 20 8 0.0000000000000000e+00 -9.1265451553999117e+00 -2.1627934672738354e+00 -6.1932728154808769e+00 0 0 0
8 8 8 0.0000000000000000e+00 -9.4618793370659482e+00 -4.9796070685107727e+00 -1.2445731885658002e+00 0 0 0
66 66 8 0.0000000000000000e+00 -7.7361836184989841e+00 -4.8932590889718988e+00 -3.6477336041045314e+00 0 0 0
67 67 8 0.0000000000000000e+00 -5.2282428918500656e+00 -5.6483173565115727e+00 -4.8519171902641602e+00 0 0 0
70 70 8 0.0000000000000000e+00 -6.7352203918312217e+00 -5.6262649564943077e+00 -1.1022457836101065e+00 0 0 0
72 72 8 0.0000000000000000e+00 -4.0506598029635796e+00 -6.4803523199618551e+00 -1.7446758194936089e+00 0 0 0
81 81 8 0.0000000000000000e+00 -6.8621950731526766e+00 -2.3182954124011079e+00 -4.3192932789312444e+00 0 0 0
82 82 8 0.0000000000000000e+00 -8.8242714752855171e+00 -4.0592887767671648e-01 -3.9934742806127734e+00 0 0 0
83 83 8 0.0000000000000000e+00 -5.0942043784004412e+00 -3.8815508538820374e+00 -2.5697476288877130e+00 0 0 0
84 84 8 0.0000000000000000e+00 -4.2779606317975727e+00 -2.4631690730369922e+00 -5.5786292735766141e+00 0 0 0
85 85 8 0.0000000000000000e+00 -7.7115406783873119e+00 -2.9555554253819318e+00 -1.5254992371761151e+00 0 0 0
88 88 8 0.0000000000000000e+00 -4.4782931947123554e+00 -1.0832338672547062e+00 -2.9032480194769361e+00 0 0 0
282 296 10 -8.3399999999999996e-01 -2.1349491864949890e+00 -5.0535497880162499e+00 -5.0894778227543203e+00 0 0 0
284 296 9 4.1699999999999998e-01 -2.8071783742862237e+00 -5.6893789685634468e+00 -5.3346966194109573e+00 0 0 0
288 298 10 -8.3399999999999996e-01 -1.5192021500882369e+00 -1.8529602071367828e+00 -4.5147833668333730e+00 0 0 0
289 298 9 4.1699999999999998e-01 -2.0812774078045315e+00 -2.5395724037669805e+00 -4.1557037134745771e+00 0 0 0
290 298 9 4.1699999999999998e-01 -2.0724447442885250e+00 -1.0718869765315011e+00 -4.5270457446342318e+00 0 0 0
312 306 10 -8.3399999999999996e-01 -2.1917957536811308e+00 -3.3968713610735057e+00 -1.8710559817242975e+00 0 0 0
314 306 9 4.1699999999999998e-01 -2.3583790614196189e+00 -2.8577958939140462e+00 -1.0977832232475739e+00 0 0 0
101 101 8 0.0000000000000000e+00 -7.0953271242111740e+00 -3.3579730685375875e-01 -1.7576789209093455e+00 0 0 0
313 306 9 4.1699999999999998e-01 -2.2937471860426406e+00 -4.2972387770803984e+00 -1.5624339899976327e+00 0 0 0
371 325 9 4.1699999999999998e-01 -6.7672867556130356e-01 -6.6729659675655517e+00 -6.1894648727804924e-01 0 0 0
369 325 10 -8.3399999999999996e-01 -1.2973316828147397e+00 -5.9450604957749498e+00 -6.5512139404045833e-01 0 0 0
283 296 9 4.1699999999999998e-01 -1.7464933568958401e+00 -4.7821637637942747e+00 -5.9211957970297124e+00 0 0 0
87 87 8 0.0000000000000000e+00 -5.2497187007545083e+00 -2.0101144808018132e+00 -3.0442808273095601e-01 0 0 0
65 65 8 0.0000000000000000e+00 -7.2972404884702282e+00 -4.5324507888685641e+00 -6.3507664357779374e+00 0 0 0
374 326 9 4.1699999999999998e-01 -1.2882934263197043e+00 -6.3308039464895378e+00 -2.3629568154345133e+00 0 0 0
252 286 10 -8.3399999999999996e-01 -1.8688717659392537e+01 -6.6988166751124503e+00 -4.6967560189808424e+00 0 1 0
398 334 9 4.1699999999999998e-01 -1.5415994936708941e+00 -1.3024404309703739e+00 -1.8775587731963119e+00 0 0 0
410 338 9 4.1699999999999998e-01 -7.8920399050699785e-01 1.3897722750226826e-01 -1.3208026285689201e-01 0 0 -1
396 334 10 -8.3399999999999996e-01 -1.2120236376482332e+00 -4.0373347289939332e-01 -1.8805010208764630e+00 0 0 0
710 439 9 4.1699999999999998e-01 -1.7631645340883676e+01 1.9760758355541164e-01 3.4013234958343537e+00 1 0 0
349 318 9 4.1699999999999998e-01 -2.0435045548265585e+00 1.2975849366808321e+00 3.0750824236171619e+00 0 0 0
259 288 9 4.1699999999999998e-01 -1.5891701990763014e+01 6.4476178042669963e+00 -4.1718350479892923e+00 0 0 0
178 261 9 4.1699999999999998e-01 -1.5156645861084076e+01 -5.8230022079818262e+00 -5.9264990197083254e+00 0 0 0
712 440 10 -8.3399999999999996e-01 -1.6554037320931133e+01 8.3914631048223676e-01 -4.5728220716953114e+00 1 0 1
713 440 9 4.1699999999999998e-01 -1.6599163258277400e+01 1.7575525646127561e+00 -4.8388985454420377e+00 1 0 1
185 263 9 4.1699999999999998e-01 -1.6994508468380175e+01 -1.0693250265848002e+00 -7.0348948672142875e-01 0 0 0
446 350 9 4.1699999999999998e-01 -4.8669094304292315e-01 -3.5670585938402275e+00 -3.7890865351951328e+00 0 0 0
219 275 10 -8.3399999999999996e-01 -1.7311160086842431e+01 1.1150018202071363e+00 -1.6750756949292107e+00 0 0 0
22 22 8 0.0000000000000000e+00 -1.4412205887940619e+01 7.3268242618666601e-01 -2.4510140659189927e+00 0 0 0
35 35 8 0.0000000000000000e+00 -1.0800678321704863e+01 -1.9002477542082730e-03 -6.0361970584558007e+00 0 0 0
52 52 8 0.0000000000000000e+00 -1.1035094856416396e+01 6.7067250839295225e+00 -6.2721088436482839e+00 0 0 0
418 341 9 4.1699999999999998e-01 -2.3212013729718350e-01 5.3602120840620779e+00 -4.5062540895449352e+00 0 0 0
5 5 8 0.0000000000000000e+00 -1.3031340885177695e+01 6.7480313942303161e+00 -3.6545533467178672e+00 0 -1 0
428 344 9 4.1699999999999998e-01 -7.7170937169267262e-02 5.8656949024062088e+00 2.0207176711860049e+00 0 0 0
34 34 8 0.0000000000000000e+00 -1.2864938768018423e+01 1.6394391897854339e+00 -4.8630540232595258e+00 0 0 0
38 38 8 0.0000000000000000e+00 -1.2109349406567812e+01 2.3842553210033541e+00 -2.1572654900420662e+00 0 0 0
39 39 8 0.0000000000000000e+00 -9.8638879495152665e+00 7.8890477913404577e-01 -1.5140367492602707e+00 0 0 0
40 40 8 0.0000000000000000e+00 -1.0202343214125650e+01 2.0163338314751487e+00 -4.0995212803338124e+00 0 0 0
50 50 8 0.0000000000000000e+00 -1.2933548521636641e+01 4.6769314788247600e+00 -5.4822467685271263e+00 0 0 0
51 51 8 0.0000000000000000e+00 -1.0146634819379040e+01 4.1289689832847758e+00 -5.9738399392546135e+00 0 0 0
53 53 8 0.0000000000000000e+00 -1.4421296698231682e+01 3.9270903784649400e+00 -3.0999267603511238e+00 0 0 0
54 54 8 0.0000000000000000e+00 -1.2812226640315266e+01 4.8970977571642011e+00 -9.1474298108369734e-01 0 0 0
55 55 8 0.0000000000000000e+00 -9.6263926044466004e+00 3.5604743007666739e+00 -1.2366598853034159e+00 0 0 0
56 56 8 0.0000000000000000e+00 -1.1150054460492751e+01 4.7137354398825133e+00 -3.2899117378011500e+00 0 0 0
211 272 9 4.1699999999999998e-01 -1.6823402182218544e+01 4.2587803801721220e+00 -4.6567178762194477e+00 0 0 0
57 57 8 0.0000000000000000e+00 -1.4621479165899984e+01 2.6913905289470170e+00 -5.6995353793063508e-01 0 0 0
261 289 10 -8.3399999999999996e-01 -1.7521527868935248e+01 3.9285588596276755e+00 -1.6095279861442915e+00 0 0 0
263 289 9 4.1699999999999998e-01 -1.8414517463020690e+01 4.1946512026013307e+00 -1.3902848765628955e+00 0 0 0
210 272 10 -8.3399999999999996e-01 -1.7369180967387184e+01 3.5721273655117960e+00 -4.2733952430210156e+00 0 0 0
212 272 9 4.1699999999999998e-01 -1.7326024185064846e+01 3.7297819289454575e+00 -3.3302167785854868e+00 0 0 0
270 292 10 -8.3399999999999996e-01 -1.5772001777203743e+01 5.9896347783661126e+00 -1.0929611219325421e+00 0 0 0
271 292 9 4.1699999999999998e-01 -1.5959752849022626e+01 6.5123875383636802e+00 -3.1335725255397140e-01 0 0 0
272 292 9 4.1699999999999998e-01 -1.5098175410313663e+01 5.3711272001790205e+00 -8.1063240969182360e-01 0 0 0
220 275 9 4.1699999999999998e-01 -1.7211384284328076e+01 2.0491712206279695e+00 -1.4915670757226671e+00 0 0 0
221 275 9 4.1699999999999998e-01 -1.6853855282549947e+01 9.8339410606001554e-01 -2.5056506848002753e+00 0 0 0
253 286 9 4.1699999999999998e-01 -1.7760232428937876e+01 -6.8528033073559227e+00 -4.5220952262219498e+00 0 1 0
276 294 10 -8.3399999999999996e-01 -1.5889839704866498e+01 5.3762286757667281e+00 -5.7448092107039841e+00 0 0 1
262 289 9 4.1699999999999998e-01 -1.6971248079933662e+01 4.6374707038557696e+00 -1.2764525526505768e+00 0 0 0
714 440 9 4.1699999999999998e-01 -1.6538580304222307e+01 3.5121105149268228e-01 -5.3962195215811040e+00 1 0 1
237 281 10 -8.3399999999999996e-01 -1.6892139458012355e+01 6.4454823111001858e-01 6.8291219923461943e+00 0 0 0
697 435 10 -8.3399999999999996e-01 -1.8684492562823387e+01 6.1117345418496720e+00 5.1380016049365373e-01 1 0 0
316 307 9 4.1699999999999998e-01 -2.9199641689405933e+00 4.5513840870465572e-01 -5.8492704210952322e+00 0 0 0
341 315 9 4.1699999999999998e-01 -2.4780396707060248e-01 4.5491995020984275e+00 -2.9252761150112860e-01 0 0 0
665 424 9 4.1699999999999998e-01 -1.8764869582538875e+01 2.3375248871820125e+00 -4.5972080564202074e+00 1 0 0
315 307 10 -8.3399999999999996e-01 -2.7773797723314892e+00 3.8290530212321894e-01 -4.9054721582141916e+00 0 0 0
326 310 9 4.1699999999999998e-01 -1.6527362919330031e+00 -9.2825952875426321e-01 6.8487284213730328e+00 0 0 -1
92 92 8 0.0000000000000000e+00 -3.5721270623043164e+00 2.6448225363151234e-01 -6.6761909337238912e-02 0 0 0
286 297 9 4.1699999999999998e-01 -9.2503530845190340e-01 3.6182923243696221e+00 -2.3869587824224752e+00 0 -1 0
279 295 10 -8.3399999999999996e-01 -3.2209518508668147e+00 5.8206167852369459e+00 -4.1950120201698251e+00 0 -1 0
280 295 9 4.1699999999999998e-01 -3.9515108788532469e+00 6.2038145623399119e+00 -3.7094751457246420e+00 0 -1 0
281 295 9 4.1699999999999998e-01 -2.4442982407455816e+00 6.2552968062421028e+00 -3.8426407122916166e+00 0 -1 0
287 297 9 4.1699999999999998e-01 -9.0929220864578042e-01 5.1312987294947066e+00 -2.3356050780186637e+00 0 -1 0
285 297 10 -8.3399999999999996e-01 -7.0659373797965230e-01 4.3911540133217377e+00 -2.9077958129185779e+00 0 -1 0
69 69 8 0.0000000000000000e+00 -8.6731465243311998e+00 6.3488971799438252e+00 -1.4504192221274295e+00 0 -1 0
97 97 8 0.0000000000000000e+00 -7.6934135536396226e+00 2.1558842070413853e-01 -6.4614618173421769e+00 0 0 0
98 98 8 0.0000000000000000e+00 -7.7602949742344300e+00 2.1173201816503573e+00 -2.7848414315381032e+00 0 0 0
99 99 8 0.0000000000000000e+00 -5.9607370085420346e+00 8.4549797096211332e-01 -4.4250891271333703e+00 0 0 0
100 100 8 0.0000000000000000e+00 -4.8012331428091439e+00 2.7315521005233032e+00 -6.4316143375125074e+00 0 0 0
104 104 8 0.0000000000000000e+00 -5.0258754612144436e+00 1.8117702868785015e+00 -1.8127041446712155e+00 0 0 0
113 113 8 0.0000000000000000e+00 -7.6536078457783869e+00 2.9149701588483419e+00 -5.6522909037887334e+00 0 0 0
114 114 8 0.0000000000000000e+00 -8.1652806422086623e+00 7.0514857483209914e+00 -5.5492569910634248e+00 0 0 0
115 115 8 0.0000000000000000e+00 -5.6158244458198769e+00 3.6914825496364001e+00 -3.8399847769736231e+00 0 0 0
116 116 8 0.0000000000000000e+00 -5.6820710708323414e+00 5.5592371358498758e+00 -5.9906348825750193e+00 0 0 0
117 117 8 0.0000000000000000e+00 -8.4795667256006819e+00 4.7285743646005516e+00 -3.7456154275334708e+00 0 0 0
118 118 8 0.0000000000000000e+00 -6.8176674271533102e+00 4.1886755099613415e+00 -1.1253425122073546e+00 0 0 0
119 119 8 0.0000000000000000e+00 -4.0401698846629177e+00 4.6807180616125654e+00 -1.6380280968045726e+00 0 0 0
120 120 8 0.0000000000000000e+00 -6.4446063607181472e+00 6.5506343632950577e+00 -3.0987479325188279e+00 0 0 0
317 307 9 4.1699999999999998e-01 -2.8212442223083727e+00 1.2843472047320885e+00 -4.5864400479953549e+00 0 0 0
324 310 10 -8.3399999999999996e-01 -1.9229651363321629e+00 -4.9159987718639719e-02 6.5832788679211509e+00 0 0 -1
333 313 10 -8.3399999999999996e-01 -1.4558989588374978e+00 2.6305067735291994e+00 -7.0793029349919818e+00 0 0 0
334 313 9 4.1699999999999998e-01 -1.4430652362874170e+00 1.6800970325559978e+00 6.9682937028617795e+00 0 0 -1
335 313 9 4.1699999999999998e-01 -1.8281596678343455e+00 2.7631733242938674e+00 -6.2074516574812844e+00 0 0 0
336 314 10 -8.3399999999999996e-01 -2.4446591534699031e+00 3.1054047177393871e+00 -4.6236654986736028e+00 0 0 0
337 314 9 4.1699999999999998e-01 -2.8781419861993136e+00 3.9518632853830562e+00 -4.5145617816275934e+00 0 0 0
338 314 9 4.1699999999999998e-01 -1.7601392073807958e+00 3.0983087092240540e+00 -3.9545726903993494e+00 0 0 0
359 321 9 4.1699999999999998e-01 -3.0883790445079438e+00 6.0056391348400924e+00 -6.0837514127456114e+00 0 0 1
474 360 10 -8.3399999999999996e-01 -1.9513626697963993e+00 2.6328349425436057e+00 -1.1827903444849657e+00 0 0 0
475 360 9 4.1699999999999998e-01 -2.4005418388225337e+00 3.1926427030492155e+00 -5.4942122455106901e-01 0 0 0
671 426 9 4.1699999999999998e-01 -1.8601511973970897e+01 -2.1816916176496237e+00 2.4141219451970644e+00 1 0 0
357 321 10 -8.3399999999999996e-01 -2.8724985321343688e+00 6.6264683065863048e+00 -6.7796464092219573e+00 0 0 1
476 360 9 4.1699999999999998e-01 -1.8492734822265540e+00 1.7945048122080189e+00 -7.3214249018230770e-01 0 0 0
71 71 8 0.0000000000000000e+00 -5.5817425158251037e+00 6.3829932105842948e+00 2.1771840293005518e-01 0 -1 0
191 265 9 4.1699999999999998e-01 -1.6538050393147376e+01 -5.5741723640884979e+00 1.4089444336386459e+00 0 0 0
103 103 8 0.0000000000000000e+00 -5.9553147589897026e+00 2.1397834580799557e-01 1.4498802944685538e+00 0 0 0
183 263 10 -8.3399999999999996e-01 -1.7257174819865181e+01 -1.2129467899479263e+00 2.0573120604493322e-01 0 0 0
205 270 9 4.1699999999999998e-01 -1.7938124588651590e+01 -4.5625327221741987e+00 6.2301853226433801e+00 0 0 0
206 270 9 4.1699999999999998e-01 -1.6466780410944288e+01 -4.8763741554607449e+00 6.3996647683474466e+00 0 0 0
10 10 8 0.0000000000000000e+00 -1.3568594605854997e+01 -4.5281044466055747e+00 2.1117934924043107e+00 0 0 0
11 11 8 0.0000000000000000e+00 -1.1063591905134764e+01 -6.1762270961913357e+00 1.6111093302999455e+00 0 0 0
13 13 8 0.0000000000000000e+00 -1.2341094450109701e+01 -6.8897420730666585e+00 3.9799211257679064e+00 0 0 0
14 14 8 0.0000000000000000e+00 -1.1637878032185057e+01 -5.2895414348249776e+00 6.2273412882444310e+00 0 0 0
16 16 8 0.0000000000000000e+00 -1.1303362257511338e+01 -4.0400434697650800e+00 3.7266771555428422e+00 0 0 0
26 26 8 0.0000000000000000e+00 -1.2477046264906280e+01 -1.9198013756728001e+00 1.3077389272395754e+00 0 0 0
27 27 8 0.0000000000000000e+00 -9.8543046931174398e+00 -3.5763283957762102e+00 1.2935913134247849e+00 0 0 0
29 29 8 0.0000000000000000e+00 -1.3979094600133227e+01 -4.5245672672070230e+00 4.9310969399456921e+00 0 0 0
30 30 8 0.0000000000000000e+00 -1.1448585447715564e+01 -2.4568807800339041e+00 6.2315087848981578e+00 0 0 0
32 32 8 0.0000000000000000e+00 -1.0403930529510470e+01 -1.4774835727633295e+00 3.1704011655890847e+00 0 0 0
190 265 9 4.1699999999999998e-01 -1.6588876005203396e+01 -5.9196104753483718e+00 -6.4202775836179171e-02 0 0 0
225 277 10 -8.3399999999999996e-01 -1.6741411855828535e+01 -4.9950352477311943e+00 2.9985739939984937e+00 0 0 0
226 277 9 4.1699999999999998e-01 -1.6546141953391086e+01 -5.0110183318957713e+00 3.9355464058991645e+00 0 0 0
227 277 9 4.1699999999999998e-01 -1.7354139535419215e+01 -4.2671429973606170e+00 2.8934989893461251e+00 0 0 0
45 45 8 0.0000000000000000e+00 -1.3282767963603892e+01 -1.7388155867406958e+00 4.1603159581311298e+00 0 0 0
240 282 10 -8.3399999999999996e-01 -1.6329633529425191e+01 -1.7667514368083284e+00 5.6382954508415368e+00 0 0 0
242 282 9 4.1699999999999998e-01 -1.6631253378730896e+01 -2.6745930098515975e+00 5.6043507172779572e+00 0 0 0
241 282 9 4.1699999999999998e-01 -1.6081500694290462e+01 -1.5624225180495905e+00 4.7366398192845329e+00 0 0 0
204 270 10 -8.3399999999999996e-01 -1.7082388905570255e+01 -4.4210206808747188e+00 5.8252237435837992e+00 0 0 0
189 265 10 -8.3399999999999996e-01 -1.6392765373777330e+01 -6.2938583713270404e+00 7.9473973319867319e-01 0 0 0
201 269 10 -8.3399999999999996e-01 -1.5249638782516701e+01 6.5420363801259507e+00 3.6018790193151107e+00 0 -1 0
235 280 9 4.1699999999999998e-01 -1.5420885824661148e+01 -2.5611323875288274e+00 2.3425901449120472e+00 0 0 0
238 281 9 4.1699999999999998e-01 -1.6831044677016873e+01 -9.1172098422907411e-02 6.2197894727329954e+00 0 0 0
236 280 9 4.1699999999999998e-01 -1.6535576102357691e+01 -1.7786327396139745e+00 1.6813539431490208e+00 0 0 0
203 269 9 4.1699999999999998e-01 -1.5835520516446989e+01 6.9195056195513471e+00 2.9457062836550749e+00 0 -1 0
234 280 10 -8.3399999999999996e-01 -1.6134736775386184e+01 -1.9524936414574769e+00 2.5330600766817559e+00 0 0 0
110 110 8 0.0000000000000000e+00 -6.7879833625062105e+00 2.0651129903699177e+00 5.8069555913434536e+00 0 0 0
372 326 10 -8.3399999999999996e-01 -1.0789769631317547e+00 -6.5999800192667131e+00 -3.2574029860948372e+00 0 0 0
68 68 8 0.0000000000000000e+00 -4.4548836540374026e+00 -4.6746440457711298e+00 6.6204327195824666e+00 0 0 -1
311 305 9 4.1699999999999998e-01 -2.6327679352974442e-01 -2.2343498276152012e+00 -5.7349439783806506e+00 0 0 0
300 302 10 -8.3399999999999996e-01 -1.3512957577367004e+00 -5.4310655953992768e+00 6.4234016467886450e+00 0 0 0
31 31 8 0.0000000000000000e+00 -9.0343516000559756e+00 -3.8650655811248766e+00 5.7732022987725076e+00 0 0 0
15 15 8 0.0000000000000000e+00 -9.2861709077633989e+00 -6.8508734212073872e+00 5.8037396660665221e+00 0 0 0
76 76 8 0.0000000000000000e+00 -4.3820407416588107e+00 -4.5974725465679089e+00 2.3807828424035815e-01 0 0 0
429 345 10 -8.3399999999999996e-01 -1.1483844970563588e+00 -6.1052175306195187e+00 3.8615763544448916e+00 0 1 0
430 345 9 4.1699999999999998e-01 -1.3716823874407957e+00 -5.4092355894393309e+00 3.2434741908618525e+00 0 1 0
73 73 8 0.0000000000000000e+00 -8.3078729719189912e+00 -6.7157221274840770e+00 1.1545685084702280e+00 0 0 0
74 74 8 0.0000000000000000e+00 -8.7964696421503863e+00 -5.2277654290915763e+00 3.3747274944614558e+00 0 0 0
75 75 8 0.0000000000000000e+00 -5.7545110484465436e+00 -6.0357496366126737e+00 2.4086651612747820e+00 0 0 0
78 78 8 0.0000000000000000e+00 -6.3356717307191044e+00 -4.5194301459206390e+00 4.6212169244494801e+00 0 0 0
80 80 8 0.0000000000000000e+00 -3.5835586051923798e+00 -4.5357413983751451e+00 3.8450017076203880e+00 0 0 0
89 89 8 0.0000000000000000e+00 -7.1947099187187309e+00 -3.9453004408925643e+00 1.0303054989348110e+00 0 0 0
90 90 8 0.0000000000000000e+00 -8.0569476872150112e+00 -1.2461749126572146e+00 8.6502038617425381e-01 0 0 0
91 91 8 0.0000000000000000e+00 -5.1389551103612892e+00 -2.6162064003850638e+00 2.4899835603158893e+00 0 0 0
93 93 8 0.0000000000000000e+00 -7.7576773137351562e+00 -2.4203185229877047e+00 3.3922020032297970e+00 0 0 0
94 94 8 0.0000000000000000e+00 -6.6291999220476150e+00 -2.1933918513849227e+00 6.4444893633503755e+00 0 0 0
95 95 8 0.0000000000000000e+00 -4.0297982698715114e+00 -2.0158563388823092e+00 5.2971828173029971e+00 0 0 0
96 96 8 0.0000000000000000e+00 -3.5556919939172644e+00 -3.3676774100415763e-01 2.9916275938261032e+00 0 0 0
129 129 7 1.3300000000000001e+00 -1.4188394745751260e+00 -3.1940537964650120e+00 1.5765635948697811e+00 0 0 0
132 129 6 -6.5000000000000002e-01 -1.7075550689701409e+00 -2.6409158970533726e+00 2.8768347429821786e+00 0 0 0
133 129 6 -6.5000000000000002e-01 -1.6877921525854873e+00 -4.5925357450932935e+00 1.5086070736678954e+00 0 0 0
303 303 10 -8.3399999999999996e-01 -8.1823899574906633e-01 -2.9669441222862218e+00 5.5874639614146728e+00 0 0 0
304 303 9 4.1699999999999998e-01 -1.3248082358482129e+00 -2.8285720091641497e+00 4.7871241175496229e+00 0 0 0
698 435 9 4.1699999999999998e-01 -1.8725312748057508e+01 7.0168831638141658e+00 8.2257645662462320e-01 1 0 0
131 129 6 -6.5000000000000002e-01 -2.0552790959184257e+00 -2.4372128718645190e+00 5.6267008298936005e-01 0 0 0
79 79 8 0.0000000000000000e+00 -6.5092816543557088e+00 -6.7394149285301426e+00 6.3781160216013850e+00 0 0 0
47 47 8 0.0000000000000000e+00 -8.9112188571510291e+00 -7.3670426125490707e-01 5.5001467847221877e+00 0 0 0
301 302 9 4.1699999999999998e-01 -1.0754280900217914e+00 -5.6921732514018180e+00 5.5447532600555371e+00 0 0 0
109 109 8 0.0000000000000000e+00 -6.0623810615011262e+00 -2.6001639452189806e-01 4.4201964326486562e+00 0 0 0
323 309 9 4.1699999999999998e-01 -9.9739485305721942e-01 -9.0116466885615765e-01 3.4605154537645832e+00 0 0 0
321 309 10 -8.3399999999999996e-01 -9.3630665913870104e-01 -2.1015060896405657e-01 4.1201145003430062e+00 0 0 0
302 302 9 4.1699999999999998e-01 -1.7675188938785844e+00 -6.2128667868781351e+00 6.7865108806688808e+00 0 0 0
102 102 8 0.0000000000000000e+00 -7.7290380494681852e+00 1.7676982421086072e+00 8.7848277938844532e-03 0 0 0
274 293 9 4.1699999999999998e-01 -1.7117374582609600e+01 1.2240014830588732e+00 5.6482264398879867e-01 0 0 0
248 284 9 4.1699999999999998e-01 -1.4460960995284317e+01 2.5681259333137474e+00 7.0385733420477123e+00 0 0 -1
277 294 9 4.1699999999999998e-01 -1.6209900506216837e+01 5.7497775117038730e+00 -6.5659824361448020e+00 0 0 1
275 293 9 4.1699999999999998e-01 -1.7189948658637881e+01 1.8099136727826499e+00 1.9589221163138992e+00 0 0 0
239 281 9 4.1699999999999998e-01 -1.7657581014735502e+01 1.1377483918194828e+00 6.5339001780294792e+00 0 0 0
202 269 9 4.1699999999999998e-01 -1.4384706048597387e+01 6.5640113166475400e+00 3.1923530043508572e+00 0 -1 0
711 439 9 4.1699999999999998e-01 -1.6257741314741018e+01 -3.4480673747228252e-01 3.0692876006827108e+00 1 0 0
192 266 10 -8.3399999999999996e-01 -1.6678960262677819e+01 5.4154429146658662e+00 5.8442678064649849e+00 0 -1 0
273 293 10 -8.3399999999999996e-01 -1.7195168332878460e+01 2.0549655542617975e+00 1.0335976113272443e+00 0 0 0
194 266 9 4.1699999999999998e-01 -1.6253487261146216e+01 5.8037988685848534e+00 5.0797709222077101e+00 0 -1 0
246 284 10 -8.3399999999999996e-01 -1.5236373297762979e+01 2.8485928999122434e+00 -6.6362376737742617e+00 0 0 0
247 284 9 4.1699999999999998e-01 -1.5933978283209122e+01 2.2686873261064813e+00 -6.9417861997383019e+00 0 0 0
709 439 10 -8.3399999999999996e-01 -1.6710184919909750e+01 4.5134394409693002e-01 3.3481101165470841e+00 1 0 0
373 326 9 4.1699999999999998e-01 -1.3707147801330741e+00 -5.8691521117197407e+00 -3.8024559377244613e+00 0 0 0
9 9 8 0.0000000000000000e+00 -1.3499352665747104e+01 7.0132999513360934e+00 8.9181684053783528e-01 0 -1 0
266 290 9 4.1699999999999998e-01 -1.7690245437441401e+01 2.9193513540444398e+00 4.3310735555865483e+00 0 0 0
265 290 9 4.1699999999999998e-01 -1.6378022163547577e+01 2.1779228176349408e+00 4.1881497052160510e+00 0 0 0
264 290 10 -8.3399999999999996e-01 -1.6795630587595642e+01 2.8915521864101477e+00 4.6704767998825778e+00 0 0 0
278 294 9 4.1699999999999998e-01 -1.5356495289811477e+01 4.6280465815351297e+00 -6.0132685219320825e+00 0 0 1
36 36 8 0.0000000000000000e+00 -9.5879450687031387e+00 1.9661042387540357e+00 6.4570974283034408e+00 0 0 -1
49 49 8 0.0000000000000000e+00 -1.2246305326141162e+01 2.4784980534255032e+00 6.5827812633644536e+00 0 0 -1
243 283 10 -8.3399999999999996e-01 -1.6441922907636890e+01 4.7640210972920825e+00 1.4295908347966249e+00 0 0 -1
244 283 9 4.1699999999999998e-01 -1.6870102890549848e+01 3.9881733472510978e+00 1.0676167057287129e+00 0 0 -1
245 283 9 4.1699999999999998e-01 -1.6390399731419112e+01 4.5929394421464567e+00 2.3700053839118889e+00 0 0 -1
41 41 8 0.0000000000000000e+00 -1.4701362483382923e+01 1.9595868499774927e-01 1.0416022250482415e+00 0 0 0
42 42 8 0.0000000000000000e+00 -1.4266392060195091e+01 2.8753896986347049e+00 2.3538874713533753e+00 0 0 0
43 43 8 0.0000000000000000e+00 -1.2592677681346100e+01 5.9636462089045139e-01 2.6645179314594971e+00 0 0 0
44 44 8 0.0000000000000000e+00 -1.2021173657033318e+01 2.6035188746810176e+00 5.8513520785396178e-01 0 0 0
46 46 8 0.0000000000000000e+00 -1.4210660215637436e+01 1.4860916517063538e+00 4.7946176826726612e+00 0 0 0
48 48 8 0.0000000000000000e+00 -1.1494727842857031e+01 2.0959056578549795e-01 5.1185161400898549e+00 0 0 0
58 58 8 0.0000000000000000e+00 -1.2268789475158588e+01 4.8445609986352283e+00 2.4762373575562782e+00 0 0 0
59 59 8 0.0000000000000000e+00 -1.1206228028150505e+01 2.6388424021275627e+00 3.9234436303530833e+00 0 0 0
60 60 8 0.0000000000000000e+00 -1.0431036634016504e+01 5.5588475352501510e+00 4.6445530173103311e-01 0 0 0
61 61 8 0.0000000000000000e+00 -1.3703639643488817e+01 4.3681501524787825e+00 4.8842279735524015e+00 0 0 0
62 62 8 0.0000000000000000e+00 -1.3524487053284592e+01 6.6172377548955472e+00 6.6503413579328035e+00 0 0 0
63 63 8 0.0000000000000000e+00 -1.1097454507014891e+01 4.9742019935095376e+00 5.5659127563158544e+00 0 0 0
64 64 8 0.0000000000000000e+00 -9.8493198050161865e+00 5.9646825297791919e+00 3.2643452311539845e+00 0 0 0
105 105 8 0.0000000000000000e+00 -1.0268402898570058e+01 4.9125243850918299e-01 1.1750041215861868e+00 0 0 0
121 121 8 0.0000000000000000e+00 -9.7106743093911199e+00 3.2022424403945307e+00 1.7547268491959196e+00 0 0 0
193 266 9 4.1699999999999998e-01 -1.6923665400074004e+01 4.5344204720548076e+00 5.5610329849379019e+00 0 -1 0
325 310 9 4.1699999999999998e-01 -1.8668111061542163e+00 -5.9100647377370308e-02 5.6277418344762404e+00 0 0 -1