LAMMPS data file via write_data, version 16 Mar 2018, timestep = 5000

297 atoms
12 atom types
125 bonds
8 bond types
121 angles
13 angle types
132 dihedrals
18 dihedral types

-9.6867537761395681e+00 9.6867537761395681e+00 xlo xhi
-7.2650653321048448e+00 7.2650653321048448e+00 ylo yhi
-7.2650653321048448e+00 7.2650653321048448e+00 zlo zhi

Masses

1 1.008
2 1.008
3 12.011
4 12.011
5 15.9994
6 15.9994
7 32.06
8 196.966
9 1.008
10 15.9994
11 35.45
12 22.9898

Pair Coeffs # lj/charmmfsw/coul/long

1 0.028 2.38761 0.028 2.38761
2 0.024 2.38761 0.024 2.38761
3 0.056 3.58141 0.01 3.38542
4 0.078 3.63487 0.01 3.38542
5 0.1 2.93997 0.1 2.93997
6 0.12 3.02906 0.12 3.02906
7 0.47 3.74177 0.47 3.74177
8 5.29 2.62904 5.29 2.62904
9 0.046 0.400014 0.046 0.400014
10 0.1521 3.15057 0.1521 3.15057
11 0.15 4.04468 0.15 4.04468
12 0.0469 2.42993 0.0469 2.42993

Bond Coeffs # harmonic

1 222.5 1.53
2 222.5 1.528
3 309 1.111
4 340 1.43
5 322 1.111
6 450 0.9572
7 540 1.448
8 250 1.575

Angle Coeffs # charmm

1 58.35 113.6 11.16 2.561
2 58 115 8 2.561
3 26.5 110.1 22.53 2.179
4 75.7 110.1 0 0
5 34.6 110.1 22.53 2.179
6 15 109 27 1.9
7 34.6 110.1 22.53 2.179
8 35.5 109 5.4 1.802
9 60 109.5 0 0
10 35.5 108.4 5.4 1.802
11 55 104.52 0 0
12 130 109.47 35 2.45
13 85 98 0 0

Dihedral Coeffs # charmmfsw

1 0.101 2 0 1
2 0.142 3 180 0
3 0.074 4 0 0
4 0.097 5 0 0
5 0.162 2 0 1
6 0.047 3 180 0
7 0.105 4 0 0
8 0.177 5 0 0
9 0.19 3 0 1
10 0 3 0 1
11 0.16 3 0 1
12 0 3 0 1
13 0 3 0 1
14 0.19 3 0 1
15 0.19 3 0 1
16 0.19 3 0 1
17 0.16 3 0 1
18 0 3 0 1

Atoms # full

2 2 8 0.0000000000000000e+00 -9.1481640304250842e+00 -4.1848163838525867e+00 -6.0754666698679562e+00 0 0 0
3 3 8 0.0000000000000000e+00 -6.6809134650437016e+00 -5.8551856302704071e+00 -5.5467423539154694e+00 0 0 0
5 5 8 0.0000000000000000e+00 -8.4516063534970165e+00 -4.9244699491587118e+00 -3.4704408423014326e+00 0 0 0
6 6 8 0.0000000000000000e+00 -7.6482556633509216e+00 -2.7711303276327302e+00 -1.5972221054891991e+00 0 0 0
7 7 8 0.0000000000000000e+00 -6.0326406133626147e+00 -6.4746324440058522e+00 -2.8960746722015784e+00 0 0 0
8 8 8 0.0000000000000000e+00 -5.7903628609806415e+00 -3.6946897451549807e+00 -3.6277058206900206e+00 0 0 0
19 19 8 0.0000000000000000e+00 -6.3951149459656040e+00 -3.0581215352916242e+00 -6.4720850288321188e+00 0 0 0
21 21 8 0.0000000000000000e+00 -8.1750807772124414e+00 -2.1247440605381742e+00 -4.2369610238599353e+00 0 0 0
23 23 8 0.0000000000000000e+00 -4.8922947700349182e+00 -1.6436468597341980e+00 -1.9085233721412704e+00 0 0 0
24 24 8 0.0000000000000000e+00 -5.5170366580540646e+00 -1.0352252613583257e+00 -4.5701867517533330e+00 0 0 0
66 66 8 0.0000000000000000e+00 -4.0789191623649543e+00 -4.5101089647141386e+00 -5.7975329343055666e+00 0 0 0
68 68 8 0.0000000000000000e+00 -1.4019503671908726e+00 -3.4355884619262089e+00 -5.9629331299723942e+00 0 0 0
69 69 8 0.0000000000000000e+00 -3.4458069783464120e+00 -5.3860990391805945e+00 -3.0689291426741629e+00 0 0 0
70 70 8 0.0000000000000000e+00 -2.6146980351443867e+00 -3.3518518450359096e+00 -1.2441443601316671e+00 0 0 0
72 72 8 0.0000000000000000e+00 -7.5341861009595235e-01 -4.1445210179155385e+00 -3.3244021487923732e+00 0 0 0
81 81 8 0.0000000000000000e+00 -3.6350814479716815e+00 -1.7045017931483990e+00 -6.6717998838709462e+00 0 0 0
83 83 8 0.0000000000000000e+00 -2.1735237673877705e-01 -1.4490528668842240e+00 -4.2532266045085176e+00 0 0 0
85 85 8 0.0000000000000000e+00 -3.2029978089393039e+00 -2.5119203553007763e+00 -4.0093967026329533e+00 0 0 0
86 86 8 0.0000000000000000e+00 -2.3216374409182992e+00 -5.7793519052018816e-01 -2.1994701223326718e+00 0 0 0
9 9 8 0.0000000000000000e+00 -7.9102658120535150e+00 -5.7418095606654518e+00 -7.2589403129120988e-01 0 0 0
12 12 8 0.0000000000000000e+00 -5.1817766303729957e+00 -4.5332806703807949e+00 -9.6032018875147607e-01 0 0 0
73 73 8 0.0000000000000000e+00 -2.8443150418920276e+00 -6.2224202331080480e+00 -4.4571743808672259e-01 0 0 0
67 67 8 0.0000000000000000e+00 -1.6295614546420012e+00 -6.2596018047190638e+00 -5.0440505096826653e+00 0 0 0
120 120 8 0.0000000000000000e+00 -1.0866685505736058e+00 -7.1848048902295094e+00 -2.5142228434228659e+00 0 1 0
84 84 8 0.0000000000000000e+00 -8.7023680529633829e-01 -7.4125107422041747e-01 -6.9829405883504112e+00 0 0 0
18 18 8 0.0000000000000000e+00 -8.6203279580638856e+00 -1.2244881228587516e+00 -7.0165942430825359e+00 0 0 0
22 22 8 0.0000000000000000e+00 -7.3029092873590891e+00 -1.0136469360750322e-01 -2.4467011772864664e+00 0 0 0
50 50 8 0.0000000000000000e+00 -9.2452698624839282e+00 -7.1063344145705996e+00 -5.1390560105438956e+00 0 1 0
71 71 8 0.0000000000000000e+00 -2.2102979577693027e-01 -5.0450547472157474e+00 -6.1153047085015899e-01 0 0 0
53 53 8 0.0000000000000000e+00 -9.4430758449965069e+00 4.5783994435281574e+00 -4.2726576855279070e+00 0 0 0
82 82 8 0.0000000000000000e+00 -2.6719035900898138e+00 2.2502963811732801e-01 -4.7692449045351797e+00 0 0 0
35 35 8 0.0000000000000000e+00 -7.6270111732040284e+00 6.5298801527070705e-01 -5.1148587211121423e+00 0 0 0
49 49 8 0.0000000000000000e+00 -8.8665590659036155e+00 5.3264335367025826e+00 -6.9278826215767930e+00 0 0 0
39 39 8 0.0000000000000000e+00 -4.6463761539764699e+00 1.1191635674004683e+00 -2.8615637773693550e+00 0 0 0
40 40 8 0.0000000000000000e+00 -7.0161416814581283e+00 2.8336004770400063e+00 -3.4581394171082644e+00 0 0 0
51 51 8 0.0000000000000000e+00 -6.7233074121085137e+00 3.7025927544683004e+00 -6.1293295840861175e+00 0 0 0
52 52 8 0.0000000000000000e+00 -6.1063242006276077e+00 6.4494584765604959e+00 7.2307646624925201e+00 0 0 -1
54 54 8 0.0000000000000000e+00 -8.5551758524005095e+00 6.6397681794655306e+00 -2.4771854897649721e+00 0 0 0
55 55 8 0.0000000000000000e+00 -6.2487556918506240e+00 5.1029222935159737e+00 -1.9848115500240961e+00 0 0 0
56 56 8 0.0000000000000000e+00 -6.8459441786745590e+00 5.9034129811677829e+00 -4.5783797834565849e+00 0 0 0
98 98 8 0.0000000000000000e+00 -4.9062453760086475e+00 1.7488116435062562e+00 -5.6034349234345839e+00 0 0 0
100 100 8 0.0000000000000000e+00 -2.2142089765889184e+00 2.8691965760589202e+00 -5.8658790541998531e+00 0 0 0
101 101 8 0.0000000000000000e+00 -2.0560468222986028e+00 2.3685238731420686e+00 -3.1276554515877573e+00 0 0 0
102 102 8 0.0000000000000000e+00 -3.9151253573833138e+00 3.4666902794689509e+00 -1.1215081095495636e+00 0 0 0
103 103 8 0.0000000000000000e+00 -1.6674263190719447e+00 1.8007234529871976e+00 -5.6296865693491860e-01 0 0 0
113 113 8 0.0000000000000000e+00 -3.8485679918082356e+00 4.9858883594189898e+00 -6.6290202002303458e+00 0 0 0
114 114 8 0.0000000000000000e+00 -4.3191021392503561e+00 7.1516822648338003e+00 -5.0234156322050358e+00 0 0 0
115 115 8 0.0000000000000000e+00 -1.8784522751186898e+00 5.3718325542011289e+00 -4.3786398653010039e+00 0 0 0
117 117 8 0.0000000000000000e+00 -4.3980220804716303e+00 4.0407787250698330e+00 -3.8938891709835284e+00 0 0 0
118 118 8 0.0000000000000000e+00 -3.7447379077608609e+00 6.3283994021259158e+00 -2.2855431873869989e+00 0 0 0
119 119 8 0.0000000000000000e+00 -1.2755638439284596e+00 4.5461007442616719e+00 -1.6490785839444806e+00 0 0 0
44 44 8 0.0000000000000000e+00 -6.3567917824738940e+00 2.0246201014958913e+00 -7.7832578599716129e-01 0 0 0
105 105 8 0.0000000000000000e+00 -4.0108514669682025e+00 4.0805072819583454e-01 -6.3807199813520121e-02 0 0 0
41 41 8 0.0000000000000000e+00 -9.2972639802089017e+00 8.8309754307890742e-01 -5.9841803444570996e-01 0 0 0
38 38 8 0.0000000000000000e+00 -8.8126587753235057e+00 3.6717731630986030e+00 -1.4173127522582867e+00 0 0 0
116 116 8 0.0000000000000000e+00 -1.2800637272418438e+00 6.2358597797834729e+00 -7.0039298354452821e+00 0 0 0
60 60 8 0.0000000000000000e+00 -5.5082610543346950e+00 7.1260340494359724e+00 -1.1395130572154866e-01 0 0 0
34 34 8 0.0000000000000000e+00 -9.6251158152812852e+00 2.6837688868396494e+00 -6.1138495142187095e+00 0 0 0
121 121 8 0.0000000000000000e+00 -3.0475417278145018e+00 5.5986378363544720e+00 4.8664099181615228e-01 0 0 0
126 126 8 0.0000000000000000e+00 -4.3134033327507462e+00 5.6717715357757985e+00 5.2231516447416926e+00 0 0 0
20 20 8 0.0000000000000000e+00 -5.9672949770517398e+00 -2.6701132789926874e-01 7.2570683532291671e+00 0 0 -1
95 95 8 0.0000000000000000e+00 -3.3841107129327419e-01 -2.7526121280824052e+00 5.6642505018025187e+00 0 0 0
28 28 8 0.0000000000000000e+00 -6.8147886042859511e+00 -8.6510743692220782e-01 3.1026135951646339e-01 0 0 0
1 1 8 0.0000000000000000e+00 -8.3070029598361668e+00 -6.3508213375484814e+00 6.7724504645499408e+00 0 0 -1
14 14 8 0.0000000000000000e+00 -9.0948716412266251e+00 -5.5018993988764517e+00 3.9486810427417840e+00 0 0 0
92 92 8 0.0000000000000000e+00 -1.7961252605645255e+00 -1.2931313773130224e+00 5.0482474444335512e-01 0 0 0
4 4 8 0.0000000000000000e+00 -5.7813158621956919e+00 -5.0804424852158281e+00 6.3430102272749433e+00 0 0 -1
17 17 8 0.0000000000000000e+00 -8.1190128418415206e+00 -3.5354190679589856e+00 5.7852288686237578e+00 0 0 -1
65 65 8 0.0000000000000000e+00 -3.5413947312114749e+00 -6.7560679338770724e+00 6.9092970719344375e+00 0 0 -1
11 11 8 0.0000000000000000e+00 -7.1988367030422200e+00 -6.5412703663291509e+00 1.8461585749756857e+00 0 0 0
15 15 8 0.0000000000000000e+00 -4.0289929855631037e+00 -5.9993392323373307e+00 4.2964815719443958e+00 0 0 0
16 16 8 0.0000000000000000e+00 -6.3924101934257180e+00 -4.3860525311857206e+00 3.6517007456760027e+00 0 0 0
25 25 8 0.0000000000000000e+00 -9.4478684554019274e+00 -1.8971067125275640e+00 5.8007083729040509e-01 0 0 0
27 27 8 0.0000000000000000e+00 -7.0105953313564289e+00 -3.6345514461359669e+00 1.0360893214335114e+00 0 0 0
29 29 8 0.0000000000000000e+00 -8.8693568190463150e+00 -2.7553576263934483e+00 3.2888260382143741e+00 0 0 0
30 30 8 0.0000000000000000e+00 -8.0170639151645737e+00 -5.4580805220825290e-01 4.7620242009570202e+00 0 0 0
31 31 8 0.0000000000000000e+00 -5.4963155782701145e+00 -2.3066113663971111e+00 5.5407008196296914e+00 0 0 0
32 32 8 0.0000000000000000e+00 -6.2146909419376497e+00 -1.6255539018252456e+00 2.8547308962200919e+00 0 0 0
74 74 8 0.0000000000000000e+00 -4.6140440852104012e+00 -5.3662228086967207e+00 1.6558400954951704e+00 0 0 0
75 75 8 0.0000000000000000e+00 -2.2603945818680042e+00 -6.8172261857334453e+00 2.1627819693870816e+00 0 0 0
76 76 8 0.0000000000000000e+00 -2.0461733707393748e+00 -4.0892948249168288e+00 1.3297921021920605e+00 0 0 0
77 77 8 0.0000000000000000e+00 -1.3508270356207905e+00 -4.8312353609378356e+00 3.9802202506311186e+00 0 0 0
78 78 8 0.0000000000000000e+00 -3.0653967944844114e+00 -3.8972959848508624e+00 6.1410263849395417e+00 0 0 0
79 79 8 0.0000000000000000e+00 -9.4814149272463588e-01 -5.5544482468221643e+00 6.7656395305815042e+00 0 0 0
89 89 8 0.0000000000000000e+00 -4.4687910943260567e+00 -2.4345987806548761e+00 7.4759956169650543e-01 0 0 0
90 90 8 0.0000000000000000e+00 -3.6577115759998655e+00 -3.9244386783538854e-01 2.5348334794872791e+00 0 0 0
91 91 8 0.0000000000000000e+00 -1.1432595294573584e+00 -2.1572541135646226e+00 3.0399813152090776e+00 0 0 0
93 93 8 0.0000000000000000e+00 -3.7742717778258754e+00 -3.1913704103813130e+00 3.5023366416690074e+00 0 0 0
94 94 8 0.0000000000000000e+00 -2.8022181465213967e+00 -1.1700011004573634e+00 5.1835359661392513e+00 0 0 0
13 13 8 0.0000000000000000e+00 -6.6361325748843498e+00 7.2546483246696170e+00 4.6105827918535489e+00 0 -1 0
111 111 8 0.0000000000000000e+00 -2.4990396763980094e-01 2.0605462167720852e+00 6.6235705580391588e+00 0 0 0
36 36 8 0.0000000000000000e+00 -4.8484689315517775e+00 2.9155295758445252e+00 6.2462451319897045e+00 0 0 -1
97 97 8 0.0000000000000000e+00 -3.0834327086254500e+00 9.0482561825146846e-01 6.8937153474310140e+00 0 0 -1
122 122 8 0.0000000000000000e+00 -4.9722379572650262e+00 6.4390913509410943e+00 2.6081123072661505e+00 0 0 0
33 33 8 0.0000000000000000e+00 -7.6097036006832841e+00 1.7346780694097834e+00 6.5567857081484870e+00 0 0 -1
26 26 8 0.0000000000000000e+00 -8.5629146546859811e+00 2.5165452272104183e-01 2.1352418617689484e+00 0 0 0
42 42 8 0.0000000000000000e+00 -8.2907844250995115e+00 2.9771294637943928e+00 1.2260657708294396e+00 0 0 0
45 45 8 0.0000000000000000e+00 -7.5575660619923593e+00 2.2543600120879059e+00 3.9153087020474118e+00 0 0 0
43 43 8 0.0000000000000000e+00 -5.7666014022772902e+00 1.4067091581365716e+00 1.8994663775192357e+00 0 0 0
48 48 8 0.0000000000000000e+00 -5.1002950283990014e+00 3.6366209055807026e+00 3.4695683617336428e+00 0 0 0
128 128 8 0.0000000000000000e+00 -1.6122769685776870e+00 6.9025872957389893e+00 4.9125739647483435e+00 0 0 0
47 47 8 0.0000000000000000e+00 -5.2900933465264135e+00 4.5621129407256245e-01 4.7034922934198136e+00 0 0 0
62 62 8 0.0000000000000000e+00 -9.2601793523698248e+00 6.2558300944329801e+00 4.9619443094491711e+00 0 0 0
96 96 8 0.0000000000000000e+00 -2.9060558683979387e-01 6.3192489106335792e-02 4.7461556925584460e+00 0 0 0
64 64 8 0.0000000000000000e+00 -7.4060322986790510e+00 5.1483319058124071e+00 2.8576398398714389e+00 0 0 0
63 63 8 0.0000000000000000e+00 -7.0330078518948005e+00 4.4724950862438462e+00 5.5769840853812465e+00 0 0 0
124 124 8 0.0000000000000000e+00 -2.0681925086395481e-01 6.6430477614727117e+00 2.9833846118190444e-01 0 0 0
125 125 8 0.0000000000000000e+00 -2.6121990000333755e+00 4.9866973833794290e+00 3.1493775895131826e+00 0 0 0
109 109 8 0.0000000000000000e+00 -2.8693500392371938e+00 1.6713435243776686e+00 4.2825206629426749e+00 0 0 0
106 106 8 0.0000000000000000e+00 -3.2791380879321634e+00 2.7372352743860251e+00 1.4991521488963873e+00 0 0 0
107 107 8 0.0000000000000000e+00 -1.0908556546315324e+00 9.9951625714534487e-01 2.1217332777421358e+00 0 0 0
108 108 8 0.0000000000000000e+00 -7.5140758744191416e-01 3.9402465969213392e+00 1.1834561615588015e+00 0 0 0
59 59 8 0.0000000000000000e+00 -5.7586971652286856e+00 4.3271321381275722e+00 7.8093517127038226e-01 0 0 0
112 112 8 0.0000000000000000e+00 -4.1617162583229650e-01 2.9551774849271251e+00 3.9501036115956225e+00 0 0 0
110 110 8 0.0000000000000000e+00 -2.1872485700622430e+00 4.0236921600666324e+00 5.8584472393646099e+00 0 0 0
57 57 8 0.0000000000000000e+00 -8.0858590677568589e+00 5.8452295985752674e+00 2.2317320833162491e-01 0 0 0
10 10 8 0.0000000000000000e+00 -9.6830541762847648e+00 -4.7647919025030321e+00 1.3813465408502488e+00 0 0 0
187 264 9 4.1699999999999998e-01 -9.6446679401658990e+00 -1.9423267406605405e+00 -2.6743924097097693e+00 1 0 0
129 129 7 1.3300000000000001e+00 2.6216010634080451e+00 -5.9146046639457017e+00 -2.6633724912025185e+00 0 0 0
130 129 5 -2.8000000000000003e-01 2.6034378161867409e+00 -4.5649596222696722e+00 -2.0125678559751687e+00 0 0 0
131 129 6 -6.5000000000000002e-01 1.7460771336429541e+00 -5.7762116160787329e+00 -3.8049053870255838e+00 0 0 0
132 129 6 -6.5000000000000002e-01 2.0857883625457863e+00 -6.9031330435728995e+00 -1.7297629459894086e+00 0 0 0
133 129 6 -6.5000000000000002e-01 3.9195590649614207e+00 -6.1950961201368662e+00 -3.2126083780919608e+00 0 0 0
221 275 9 4.1699999999999998e-01 5.4776754731802839e+00 -6.6313082399141869e+00 -5.8770298131467564e+00 0 0 0
223 276 9 4.1699999999999998e-01 7.7362081669250671e+00 -1.2825985285506523e+00 -5.6766588292227942e+00 0 0 0
225 277 10 -8.3399999999999996e-01 8.2105071732674197e+00 -7.0680017404775795e+00 -6.8396238159686806e-01 0 0 0
185 263 9 4.1699999999999998e-01 1.8756512436624515e+00 -3.5403836174793906e+00 -5.7618046121711242e+00 0 0 1
277 295 10 -8.3399999999999996e-01 2.8018711589442145e+00 -2.5252274935730288e+00 -4.0200342489865006e+00 0 0 1
279 295 9 4.1699999999999998e-01 3.1220375078563656e+00 -1.7036480794441999e+00 -3.6491933690590419e+00 0 0 1
183 263 10 -8.3399999999999996e-01 1.5097432219049889e+00 -4.4098596269004906e+00 -5.9203731904388865e+00 0 0 1
219 275 10 -8.3399999999999996e-01 4.5672781765029971e+00 -6.4324047055558102e+00 -6.0929857280600341e+00 0 0 0
220 275 9 4.1699999999999998e-01 4.1680984975216511e+00 -6.1974104349691750e+00 -5.2560530233133971e+00 0 0 0
258 288 10 -8.3399999999999996e-01 8.6135443816831376e+00 -4.2437277957725623e+00 -1.7549895247480478e+00 0 0 0
228 278 10 -8.3399999999999996e-01 7.3359301475581411e+00 -3.7241407081069058e+00 -5.8418035292823758e+00 0 0 0
184 263 9 4.1699999999999998e-01 1.7442333278297788e+00 -4.9143129087061128e+00 -5.1421933019624291e+00 0 0 1
229 278 9 4.1699999999999998e-01 8.2612595646121001e+00 -3.5629257812211419e+00 -6.0229063209300104e+00 0 0 0
181 262 9 4.1699999999999998e-01 1.5229652882737881e+00 -6.9841588593704502e+00 -4.8783631682845749e+00 0 0 1
134 129 3 -2.8000000000000003e-01 3.7240512766398215e+00 -4.1649134487211601e+00 -1.2350988442491762e+00 0 0 0
135 129 1 8.9999999999999997e-02 4.4208228276103156e+00 -3.6777438476125139e+00 -1.9491480272892741e+00 0 0 0
264 290 12 1.0000000000000000e+00 7.2229569473961064e+00 -2.5774188623974013e+00 -1.4285425204418836e+00 0 0 0
136 129 1 8.9999999999999997e-02 4.1213076070812349e+00 -4.8989600076533266e+00 -5.0294066250784830e-01 0 0 0
287 298 9 4.1699999999999998e-01 5.0451997456338553e+00 -2.8865410705975956e+00 -4.1669869076071393e+00 0 0 0
286 298 10 -8.3399999999999996e-01 5.8810758160027721e+00 -2.8005433546420271e+00 -3.7098889925535139e+00 0 0 0
288 298 9 4.1699999999999998e-01 6.5341391981574191e+00 -3.0835348945822521e+00 -4.3489875601820156e+00 0 0 0
222 276 10 -8.3399999999999996e-01 8.0050612333262094e+00 -7.5648085299956680e-01 -4.9243683257157906e+00 0 0 0
224 276 9 4.1699999999999998e-01 7.7023525686253969e+00 1.2745609157669069e-01 -5.1294195323952358e+00 0 0 0
252 286 10 -8.3399999999999996e-01 5.9099948104112432e+00 -5.1752182213609554e-01 -1.7591172048266701e+00 0 0 0
253 286 9 4.1699999999999998e-01 6.2446189131138947e+00 3.0044881970451698e-01 -2.1251414373444639e+00 0 0 0
230 278 9 4.1699999999999998e-01 6.9919935714447732e+00 -4.0884521235411091e+00 -6.6566698414456820e+00 0 0 0
260 288 9 4.1699999999999998e-01 8.3985396739760390e+00 -4.8624513407632728e+00 -1.0578698075769770e+00 0 0 0
278 295 9 4.1699999999999998e-01 2.6805164158746706e+00 -3.0984589689994593e+00 -3.2639246562425281e+00 0 0 1
180 262 10 -8.3399999999999996e-01 1.1286415429154637e+00 7.0107058806504874e+00 -5.5661292151133859e+00 0 -1 1
254 286 9 4.1699999999999998e-01 5.3089547281900593e+00 -8.5001600339653205e-01 -2.4248657878223234e+00 0 0 0
186 264 10 -8.3399999999999996e-01 9.0217225843805195e+00 -1.3296490462015296e+00 -2.4753106854751765e+00 0 0 0
150 129 1 8.9999999999999997e-02 3.1018270698155934e+00 4.1984367885929608e-01 2.7892640900431331e+00 0 0 0
290 299 9 4.1699999999999998e-01 6.8320226972026532e+00 -6.1426121078576728e+00 -3.6833010188433950e+00 0 1 0
294 300 9 4.1699999999999998e-01 6.5597119121623315e+00 -6.6755872245822090e-01 -2.2703081617286447e-01 0 0 0
87 87 8 0.0000000000000000e+00 7.8876529063931500e-02 -2.1398487709481442e+00 -1.4362236026128601e+00 0 0 0
138 129 1 8.9999999999999997e-02 2.7730877129379738e+00 -2.1705185288737008e+00 -1.2082680957763285e+00 0 0 0
191 265 9 4.1699999999999998e-01 2.6262732857028386e+00 -1.3827346831057081e+00 -5.9599527734719819e+00 0 0 1
137 129 3 -1.7999999999999999e-01 3.2351584919228014e+00 -2.9258495941242231e+00 -5.3844885158465239e-01 0 0 0
189 265 10 -8.3399999999999996e-01 2.4005613480487629e+00 -7.5412625266302591e-01 -6.6447362392138700e+00 0 0 1
190 265 9 4.1699999999999998e-01 1.7824837463592065e+00 -1.5563532208294362e-01 -6.2266315124761356e+00 0 0 1
37 37 8 0.0000000000000000e+00 9.6464526410857481e+00 1.5540362865253332e+00 -3.4304216646098467e+00 -1 0 0
282 296 9 4.1699999999999998e-01 6.2277514216899625e+00 2.1093303801249306e+00 -4.7105761828181354e+00 0 0 0
281 296 9 4.1699999999999998e-01 7.7077213713418118e+00 2.0492822557143562e+00 -4.4024291118373622e+00 0 0 0
280 296 10 -8.3399999999999996e-01 7.0514502491640805e+00 1.7382910244881664e+00 -5.0250170484071255e+00 0 0 0
188 264 9 4.1699999999999998e-01 8.9753110307706159e+00 -7.5962021928369783e-01 -3.2420805264557044e+00 0 0 0
149 129 3 -1.7999999999999999e-01 2.1605410358872117e+00 4.3313912368272955e-01 2.2006246775426703e+00 0 0 0
240 282 10 -8.3399999999999996e-01 7.8913100971502921e+00 4.9985626047522409e+00 -2.3744706610815536e+00 0 -1 0
227 277 9 4.1699999999999998e-01 8.7145776892988209e+00 7.0406575233398989e+00 1.1233637788568451e-02 0 -1 0
212 272 9 4.1699999999999998e-01 4.6217462566380583e+00 5.7857610195564817e+00 -1.8659361913653187e+00 0 0 0
217 274 9 4.1699999999999998e-01 1.5354240935734289e+00 6.2042194431965871e+00 -2.6229165824152494e+00 0 0 1
241 282 9 4.1699999999999998e-01 6.9481731392030177e+00 5.1117136079936998e+00 -2.4872128633264250e+00 0 -1 0
210 272 10 -8.3399999999999996e-01 5.2426214760340208e+00 5.9554665335796777e+00 -2.5735633786858561e+00 0 0 0
211 272 9 4.1699999999999998e-01 4.8544202385627919e+00 6.6785516707103803e+00 -3.0649600827666381e+00 0 0 0
209 271 9 4.1699999999999998e-01 2.7365742038804726e+00 4.0892817406968991e+00 -6.5790008836492486e-01 0 0 0
208 271 9 4.1699999999999998e-01 2.0225577082073922e+00 4.0448553143177932e+00 -1.9909707117986741e+00 0 0 0
198 268 10 -8.3399999999999996e-01 3.9289121805632803e+00 5.0818788693840986e+00 -5.7056468523839436e+00 0 0 0
200 268 9 4.1699999999999998e-01 3.1538280713031206e+00 4.6366219916298377e+00 -6.0462547493749810e+00 0 0 0
204 270 10 -8.3399999999999996e-01 3.2732765206699863e+00 3.5587002175934934e-01 -3.4946484064543846e+00 0 0 0
205 270 9 4.1699999999999998e-01 3.9837612376926135e+00 9.7600031645802332e-01 -3.6548756126431234e+00 0 0 0
206 270 9 4.1699999999999998e-01 2.7314031231972873e+00 7.7865620285295201e-01 -2.8293313831435407e+00 0 0 0
207 271 10 -8.3399999999999996e-01 2.6724623957416860e+00 3.5800010748523707e+00 -1.4650837493203639e+00 0 0 0
283 297 10 -8.3399999999999996e-01 6.8002321104866148e+00 4.7445248216197538e+00 -5.4535071897728233e+00 0 0 0
284 297 9 4.1699999999999998e-01 7.2041990724163476e+00 5.4347564867756919e+00 -5.9783061432146862e+00 0 0 0
285 297 9 4.1699999999999998e-01 5.8614000580374430e+00 4.9191681058213774e+00 -5.5093383462633945e+00 0 0 0
289 299 10 -8.3399999999999996e-01 7.6774284420410090e+00 -6.5878195618886402e+00 -3.6374495087188667e+00 0 1 0
291 299 9 4.1699999999999998e-01 7.6788141252182776e+00 -7.0121913252348840e+00 -2.7801692214612688e+00 0 1 0
216 274 10 -8.3399999999999996e-01 1.5071918864231257e+00 5.3848311987373485e+00 -3.1156929076111801e+00 0 0 1
218 274 9 4.1699999999999998e-01 1.2319718310732313e+00 5.6429612007519356e+00 -3.9946954649487187e+00 0 0 1
104 104 8 0.0000000000000000e+00 3.3403228691814846e-01 4.0726461216212844e+00 -5.7982488186319028e+00 0 0 0
199 268 9 4.1699999999999998e-01 3.7068439861146505e+00 6.0115975665291597e+00 -5.7421389062086332e+00 0 0 0
297 301 9 4.1699999999999998e-01 7.1315984765635072e+00 2.7294827587849895e+00 -1.0603785795860929e+00 0 0 0
88 88 8 0.0000000000000000e+00 4.0397254927715842e-01 6.2248706416742383e-01 -2.1897284260316559e+00 0 0 0
196 267 9 4.1699999999999998e-01 5.1118787271982651e+00 3.7511180424212469e+00 -4.0250768811007713e+00 0 0 1
195 267 10 -8.3399999999999996e-01 4.9830940917338928e+00 2.8705024054530419e+00 -3.6744300491367383e+00 0 0 1
197 267 9 4.1699999999999998e-01 4.2498809084417228e+00 2.9592720491533075e+00 -3.0665309314874136e+00 0 0 1
215 273 9 4.1699999999999998e-01 2.6601542673370862e+00 6.6484955744518519e+00 -3.1045909775277547e-01 0 0 0
248 284 9 4.1699999999999998e-01 7.8045757878854012e+00 -6.7866090863633959e+00 -5.6627301033795625e+00 0 0 1
246 284 10 -8.3399999999999996e-01 7.4121669190092447e+00 -7.2571319934982794e+00 -6.3973363284348297e+00 0 0 1
247 284 9 4.1699999999999998e-01 7.7994365091280962e+00 -6.8549890291960960e+00 -7.1740769321452538e+00 0 0 1
296 301 9 4.1699999999999998e-01 6.6259747144781365e+00 2.3073079567032320e+00 -2.4223555427598216e+00 0 0 0
295 301 10 -8.3399999999999996e-01 7.2216403170097685e+00 2.0441929164421193e+00 -1.7216595835749953e+00 0 0 0
242 282 9 4.1699999999999998e-01 8.2123067263669576e+00 4.7764810326160241e+00 -3.2477761757625130e+00 0 -1 0
236 280 9 4.1699999999999998e-01 7.9646196721747984e+00 4.0145421386345284e+00 -3.6637670183187510e-01 0 -1 0
226 277 9 4.1699999999999998e-01 7.4290927357697178e+00 6.9183048749850133e+00 -7.7707428607735807e-01 0 -1 0
261 289 10 -8.3399999999999996e-01 6.8161475833698617e+00 -3.8952555298253499e+00 5.2182769551713104e-01 0 0 0
262 289 9 4.1699999999999998e-01 6.9817612480681177e+00 -3.6352645500715144e+00 1.4273659073993716e+00 0 0 0
233 279 9 4.1699999999999998e-01 4.6297677261247827e+00 -2.7797339913778982e+00 5.3604953656642405e+00 0 0 -1
232 279 9 4.1699999999999998e-01 4.9498728986015017e+00 -3.6270051471627363e+00 6.5723262509241032e+00 0 0 -1
263 289 9 4.1699999999999998e-01 6.1519089467395105e+00 -4.5805285046095854e+00 5.8671659184487712e-01 0 0 0
292 300 10 -8.3399999999999996e-01 6.9406211232508710e+00 -8.1967138281102248e-01 6.3714088967865479e-01 0 0 0
293 300 9 4.1699999999999998e-01 7.0717459662010036e+00 5.6064816438840204e-02 9.9896326654050149e-01 0 0 0
231 279 10 -8.3399999999999996e-01 5.3266571130791682e+00 -3.3029358741944996e+00 5.7549918442217578e+00 0 0 -1
201 269 10 -8.3399999999999996e-01 2.0939256664818906e+00 -4.5279279673394637e+00 4.8518432907524680e+00 0 0 -1
203 269 9 4.1699999999999998e-01 1.8945567773441461e+00 -5.0603217621058327e+00 5.6211494624425207e+00 0 0 -1
194 266 9 4.1699999999999998e-01 8.8537924202757559e+00 -1.8520691633509809e+00 5.6148963224497610e+00 0 0 0
192 266 10 -8.3399999999999996e-01 8.5253526730556963e+00 -2.6339527823722380e+00 6.0573985624910627e+00 0 0 0
255 287 10 -8.3399999999999996e-01 7.3934806051356681e+00 -2.2150321132662283e+00 2.8743492829381214e+00 0 0 -1
256 287 9 4.1699999999999998e-01 7.4176042995906215e+00 -1.5809458948972939e+00 3.5901535229829395e+00 0 0 -1
257 287 9 4.1699999999999998e-01 7.2364962466896507e+00 -1.6875981210158644e+00 2.0919225283809659e+00 0 0 -1
193 266 9 4.1699999999999998e-01 7.6221367095598964e+00 -2.7195235386147925e+00 5.7542464835123006e+00 0 0 0
251 285 9 4.1699999999999998e-01 6.1882392054244164e+00 -4.3416497595233068e+00 4.5732841165390816e+00 0 0 0
178 261 9 4.1699999999999998e-01 2.4217509053395307e+00 -1.4941457727919367e+00 4.6166313174744555e+00 0 0 0
148 129 1 8.9999999999999997e-02 2.9673991738722698e+00 -5.3954286116229078e-01 3.9067735759977218e-01 0 0 0
139 129 1 8.9999999999999997e-02 4.1623165194873817e+00 -2.4990583300521898e+00 -1.0150627342636387e-01 0 0 0
250 285 9 4.1699999999999998e-01 7.2153775040814310e+00 -3.8536333336367248e+00 3.5754381114245977e+00 0 0 0
275 294 9 4.1699999999999998e-01 4.4984166534995982e+00 -6.4222687139525263e+00 2.2708295392308049e+00 0 0 0
140 129 3 -1.7999999999999999e-01 2.3517565657688699e+00 -3.2189577224284029e+00 6.5958336490420688e-01 0 0 0
141 129 1 8.9999999999999997e-02 2.6483376167485062e+00 -4.2298204368554355e+00 1.0101380541176646e+00 0 0 0
142 129 1 8.9999999999999997e-02 1.2807801438816018e+00 -3.2910984964388197e+00 3.7586290581375970e-01 0 0 0
143 129 3 -1.7999999999999999e-01 2.3226086023003614e+00 -2.1080632897379408e+00 1.6990559173747073e+00 0 0 0
144 129 1 8.9999999999999997e-02 3.2896167323114529e+00 -2.1769384240990908e+00 2.2402062377849301e+00 0 0 0
145 129 1 8.9999999999999997e-02 1.4845091076803900e+00 -2.2423851006883435e+00 2.4147648272649338e+00 0 0 0
174 260 10 -8.3399999999999996e-01 2.8879530744082249e+00 -6.8984220312131086e+00 3.2590751444396648e+00 0 0 0
177 261 10 -8.3399999999999996e-01 2.9253384203808501e+00 -1.8096801460523828e+00 5.3662042904776612e+00 0 0 0
179 261 9 4.1699999999999998e-01 2.6710659898231608e+00 -1.2330425628118231e+00 6.0858273705643917e+00 0 0 0
268 292 10 -8.3399999999999996e-01 7.9565577343951475e+00 4.4214299179713201e-02 4.3856169708331159e+00 0 0 0
270 292 9 4.1699999999999998e-01 7.8934860866662149e+00 7.2163948354100693e-01 3.7132036771778942e+00 0 0 0
274 294 10 -8.3399999999999996e-01 5.3750873049572157e+00 -6.1968582269758770e+00 1.9615372587366871e+00 0 0 0
276 294 9 4.1699999999999998e-01 5.7988517129154253e+00 -5.7907820768387621e+00 2.7168841387593261e+00 0 0 0
80 80 8 0.0000000000000000e+00 4.1715343392709414e-01 -5.7449114519713724e+00 2.0291578987556882e+00 0 0 0
175 260 9 4.1699999999999998e-01 3.0790882993044235e+00 7.0677400300463216e+00 4.0076932983750631e+00 0 -1 0
238 281 9 4.1699999999999998e-01 7.7361043561853968e+00 -5.2725222132944012e+00 5.4825947709224767e+00 0 0 0
146 129 3 -1.7999999999999999e-01 2.1344353180362834e+00 -6.7859824831742888e-01 1.1114592127738980e+00 0 0 0
176 260 9 4.1699999999999998e-01 2.4366303218772565e+00 -6.1440210946647742e+00 3.6361825866504667e+00 0 0 0
202 269 9 4.1699999999999998e-01 2.1857290113349173e+00 -3.6388739104930927e+00 5.1926918114602252e+00 0 0 -1
147 129 1 8.9999999999999997e-02 1.1859331808898883e+00 -5.8422411643267935e-01 5.4213533149323911e-01 0 0 0
249 285 10 -8.3399999999999996e-01 6.9267501272715641e+00 -4.6372335513579044e+00 4.0420076784081314e+00 0 0 0
152 129 3 -1.7999999999999999e-01 2.0553415400218018e+00 1.8425661890249803e+00 1.6079311213091341e+00 0 0 0
237 281 10 -8.3399999999999996e-01 8.2908093863797951e+00 -5.4356715207717619e+00 6.2446356434984249e+00 0 0 0
239 281 9 4.1699999999999998e-01 8.9916631739147199e+00 -4.7884867914566147e+00 6.1740789701928005e+00 0 0 0
123 123 8 0.0000000000000000e+00 3.0137831219830602e-01 5.8742506162455062e+00 3.0677529824734986e+00 0 0 0
272 293 9 4.1699999999999998e-01 7.3316917556418915e+00 1.3855838347693297e+00 -6.8657533544140321e+00 0 0 1
214 273 9 4.1699999999999998e-01 2.6968443377618208e+00 6.7854663718563373e+00 1.1957822382913221e+00 0 0 0
213 273 10 -8.3399999999999996e-01 2.9657645605588385e+00 6.2083135046557398e+00 4.8192003379633164e-01 0 0 0
172 259 9 4.1699999999999998e-01 4.8651364263691939e+00 5.7378734542826706e+00 5.7087262371106373e-01 0 -1 0
273 293 9 4.1699999999999998e-01 8.2444278526993138e+00 2.0723174903743136e+00 6.6723182381295256e+00 0 0 0
243 283 10 -8.3399999999999996e-01 2.4582305837389082e+00 -6.6140725505535993e+00 6.6448442624922723e+00 0 0 0