LAMMPS data file via write_data, version 16 Mar 2018, timestep = 5000

714 atoms
12 atom types
403 bonds
8 bond types
260 angles
13 angle types
132 dihedrals
18 dihedral types

-1.9136423946025680e+01 1.9136423946025680e+01 xlo xhi
-7.1761591252809538e+00 7.1761591252809538e+00 ylo yhi
-7.1761591252809538e+00 7.1761591252809538e+00 zlo zhi

Masses

1 1.008
2 1.008
3 12.011
4 12.011
5 15.9994
6 15.9994
7 32.06
8 196.966
9 1.008
10 15.9994
11 35.45
12 22.9898

Pair Coeffs # lj/charmmfsw/coul/long

1 0.028 2.38761 0.028 2.38761
2 0.024 2.38761 0.024 2.38761
3 0.056 3.58141 0.01 3.38542
4 0.078 3.63487 0.01 3.38542
5 0.1 2.93997 0.1 2.93997
6 0.12 3.02906 0.12 3.02906
7 0.47 3.74177 0.47 3.74177
8 5.29 2.62904 5.29 2.62904
9 0.046 0.400014 0.046 0.400014
10 0.1521 3.15057 0.1521 3.15057
11 0.15 4.04468 0.15 4.04468
12 0.0469 2.42993 0.0469 2.42993

Bond Coeffs # harmonic

1 222.5 1.53
2 222.5 1.528
3 309 1.111
4 340 1.43
5 322 1.111
6 450 0.9572
7 540 1.448
8 250 1.575

Angle Coeffs # charmm

1 58.35 113.6 11.16 2.561
2 58 115 8 2.561
3 26.5 110.1 22.53 2.179
4 75.7 110.1 0 0
5 34.6 110.1 22.53 2.179
6 15 109 27 1.9
7 34.6 110.1 22.53 2.179
8 35.5 109 5.4 1.802
9 60 109.5 0 0
10 35.5 108.4 5.4 1.802
11 55 104.52 0 0
12 130 109.47 35 2.45
13 85 98 0 0

Dihedral Coeffs # charmmfsw

1 0.101 2 0 1
2 0.142 3 180 0
3 0.074 4 0 0
4 0.097 5 0 0
5 0.162 2 0 1
6 0.047 3 180 0
7 0.105 4 0 0
8 0.177 5 0 0
9 0.19 3 0 1
10 0 3 0 1
11 0.16 3 0 1
12 0 3 0 1
13 0 3 0 1
14 0.19 3 0 1
15 0.19 3 0 1
16 0.19 3 0 1
17 0.16 3 0 1
18 0 3 0 1

Atoms # full

1 1 8 0.0000000000000000e+00 -1.3036336929582310e+01 -5.1302368381302754e+00 -6.9251917587278795e+00 0 0 0
2 2 8 0.0000000000000000e+00 -1.2755009740905017e+01 -3.8906511694133767e+00 -4.2728305545505449e+00 0 0 0
5 5 8 0.0000000000000000e+00 -1.3763448331161468e+01 -6.5403927237056347e+00 -4.3386251632930923e+00 0 0 0
6 6 8 0.0000000000000000e+00 -1.3038743634536486e+01 -5.3781744990325917e+00 -1.5275741872080253e+00 0 0 0
174 260 10 -8.3399999999999996e-01 -1.8122091407778825e+01 -2.9527094279507646e+00 -4.6722739815714256e+00 0 0 0
18 18 8 0.0000000000000000e+00 -1.2042410267348519e+01 -8.9645256980372334e-01 -4.0329174322809536e+00 0 0 0
21 21 8 0.0000000000000000e+00 -1.4585584661010165e+01 -1.8303227959476458e+00 -3.5326748703010806e+00 0 0 0
257 287 9 4.1699999999999998e-01 -1.7701101598153912e+01 -1.4066803999645612e+00 -1.5771208165095365e+00 0 0 0
659 422 9 4.1699999999999998e-01 -1.8086662777547335e+01 -5.0146818425127631e+00 -8.8546575372236902e-01 1 0 0
214 273 9 4.1699999999999998e-01 -1.5470053696954231e+01 -4.1618586852940718e+00 -6.6671853999724968e+00 0 0 0
23 23 8 0.0000000000000000e+00 -1.2162997202857726e+01 -2.7093603861914586e+00 -1.8161142572035838e+00 0 0 0
256 287 9 4.1699999999999998e-01 -1.6927707805602410e+01 -2.7080233905313476e+00 -1.5933582729016726e+00 0 0 0
179 261 9 4.1699999999999998e-01 -1.7131235742441621e+01 -6.4480387622947246e+00 -3.0692673143565212e+00 0 0 0
187 264 9 4.1699999999999998e-01 -1.4856190803046537e+01 -4.0131198538911415e+00 -1.8566192625105842e+00 0 0 0
215 273 9 4.1699999999999998e-01 -1.5115158137646294e+01 -2.7626682109194833e+00 -7.1234861238132146e+00 0 0 0
178 261 9 4.1699999999999998e-01 -1.6767001783421854e+01 -6.8554514437435179e+00 -1.6574444774730850e+00 0 0 0
171 259 10 -8.3399999999999996e-01 -1.7354144042355614e+01 -6.5506207190808583e+00 -4.6909655187174923e+00 0 0 0
186 264 10 -8.3399999999999996e-01 -1.5683977470935771e+01 -3.9282360791937059e+00 -1.3835486320917101e+00 0 0 0
25 25 8 0.0000000000000000e+00 -1.4255518520468021e+01 -9.1104285335825996e-01 -7.9258758005438201e-01 0 0 0
172 259 9 4.1699999999999998e-01 -1.8200542845612038e+01 -6.1079928777523591e+00 -4.7535874260560940e+00 0 0 0
255 287 10 -8.3399999999999996e-01 -1.7691792684582939e+01 -2.2767594668485240e+00 -1.9760037601970353e+00 0 0 0
17 17 8 0.0000000000000000e+00 -1.2402139648072673e+01 -2.0887064253598582e+00 -6.5702531178220820e+00 0 0 0
173 259 9 4.1699999999999998e-01 -1.6977435135361763e+01 -6.4732667323112345e+00 -5.5675147768450293e+00 0 0 0
177 261 10 -8.3399999999999996e-01 -1.7040990319868303e+01 -6.1025405893084361e+00 -2.1811689955691969e+00 0 0 0
175 260 9 4.1699999999999998e-01 -1.7909915313439189e+01 -2.6979695820363627e+00 -3.7743203268233452e+00 0 0 0
188 264 9 4.1699999999999998e-01 -1.6210427582748579e+01 -4.6680740517460508e+00 -1.6864048778743441e+00 0 0 0
213 273 10 -8.3399999999999996e-01 -1.5352594835286954e+01 -3.2678696810780541e+00 -6.3459083914451622e+00 0 0 0
176 260 9 4.1699999999999998e-01 -1.7271761459877968e+01 -3.0819585293651510e+00 -5.0923519428755899e+00 0 0 0
658 422 10 -8.3399999999999996e-01 -1.8890190587748798e+01 -4.7504550816394024e+00 -4.3740424277932055e-01 1 0 0
239 281 9 4.1699999999999998e-01 -1.5904345735775388e+01 -6.4072640996284957e-03 -5.7190525085511963e+00 0 0 1
660 422 9 4.1699999999999998e-01 -1.9107561401695651e+01 -3.8989165400417605e+00 -8.1669816821967078e-01 1 0 0
222 276 10 -8.3399999999999996e-01 -1.9115283319683098e+01 -2.0545428654850513e+00 5.0721536920562293e+00 0 0 -1
10 10 8 0.0000000000000000e+00 -1.3381284381554261e+01 -3.5681654281479571e+00 6.0267645396297187e-01 0 0 0
13 13 8 0.0000000000000000e+00 -1.3515301194517182e+01 -5.1048463127085757e+00 3.2021632649731235e+00 0 0 0
14 14 8 0.0000000000000000e+00 -1.3243874185436979e+01 -3.2227412191727587e+00 5.2973022962187821e+00 0 0 0
9 9 8 0.0000000000000000e+00 -1.4696799628682111e+01 -6.9086034525091273e+00 3.1008190531458107e-01 0 0 0
26 26 8 0.0000000000000000e+00 -1.2453259120671119e+01 -8.6383947080227863e-01 1.2584434852534419e+00 0 0 0
29 29 8 0.0000000000000000e+00 -1.4387101113268097e+01 -2.0945661837262564e+00 2.9976635386285637e+00 0 0 0
30 30 8 0.0000000000000000e+00 -1.2647147028166387e+01 -2.9200853972247381e-01 4.9312039446278355e+00 0 0 0
653 420 9 4.1699999999999998e-01 -1.8405383143869262e+01 -3.6098683696282912e+00 2.0035381841756532e+00 1 1 0
191 265 9 4.1699999999999998e-01 -1.7457731992280795e+01 -6.1344333511056348e+00 6.4621074819011808e+00 0 0 0
219 275 10 -8.3399999999999996e-01 -1.6469480490495162e+01 -3.5395521557629332e+00 5.1547157324609065e+00 0 0 0
240 282 10 -8.3399999999999996e-01 -1.5262743849227462e+01 -1.2127347690559689e+00 6.1246968766373824e+00 0 0 0
270 292 10 -8.3399999999999996e-01 -1.6208603514390003e+01 -5.9701534121543149e+00 3.2041431672342062e+00 0 1 0
234 280 10 -8.3399999999999996e-01 -1.7212611411850553e+01 -1.2524078143727180e+00 9.4189173767923984e-01 0 0 0
221 275 9 4.1699999999999998e-01 -1.7408715922911043e+01 -3.3868289760637027e+00 5.2583703186131485e+00 0 0 0
232 279 9 4.1699999999999998e-01 -1.6261513908462572e+01 -3.9905341202893054e+00 3.1699267248359148e-01 0 0 0
236 280 9 4.1699999999999998e-01 -1.8120903513866892e+01 -1.5519902180811755e+00 9.0332126187951234e-01 0 0 0
271 292 9 4.1699999999999998e-01 -1.6583349659019913e+01 -5.5242905770145745e+00 2.4445357017636145e+00 0 1 0
272 292 9 4.1699999999999998e-01 -1.6125789521849907e+01 -5.2852719923838265e+00 3.8677026030666695e+00 0 1 0
640 416 10 -8.3399999999999996e-01 -1.6914169681271840e+01 -6.3086466099816874e-01 3.9149010390976184e+00 1 0 0
189 265 10 -8.3399999999999996e-01 -1.6604681361799930e+01 -5.7947409813202464e+00 6.7325618351537120e+00 0 0 0
190 265 9 4.1699999999999998e-01 -1.6499674450096538e+01 -4.9847747206088355e+00 6.2334024945222088e+00 0 0 0
233 279 9 4.1699999999999998e-01 -1.5907356874796218e+01 -3.4622406891278232e+00 1.6908099959326208e+00 0 0 0
11 11 8 0.0000000000000000e+00 -1.2045687605741758e+01 -6.3243364249521861e+00 1.1108735371840734e+00 0 0 0
231 279 10 -8.3399999999999996e-01 -1.6514119909288610e+01 -4.0482805827233177e+00 1.2384520572869837e+00 0 0 0
220 275 9 4.1699999999999998e-01 -1.6078882124539582e+01 -2.6664440300815246e+00 5.1914166728206617e+00 0 0 0
235 280 9 4.1699999999999998e-01 -1.7116898406034387e+01 -6.7800164930353712e-01 1.8220204992424824e-01 0 0 0
223 276 9 4.1699999999999998e-01 -1.8301557972378795e+01 -1.5657149929091947e+00 4.9491487436756794e+00 0 0 -1
641 416 9 4.1699999999999998e-01 -1.6992121758344194e+01 -7.6997616660185209e-01 2.9710772702532453e+00 1 0 0
242 282 9 4.1699999999999998e-01 -1.6034381891702541e+01 -9.2676828767595942e-01 5.6357901939313368e+00 0 0 0
62 62 8 0.0000000000000000e+00 -1.3468792625069829e+01 -6.9834198057756822e+00 5.4214903256404829e+00 0 1 0
241 282 9 4.1699999999999998e-01 -1.5293962605855883e+01 -7.0936232659738774e-01 6.9382529079826636e+00 0 0 0
243 283 10 -8.3399999999999996e-01 -1.5895650594697246e+01 5.6389230873066190e+00 -4.1135796226782366e+00 0 0 0
34 34 8 0.0000000000000000e+00 -1.3480633783772092e+01 3.7699262835375777e+00 -4.1534586343914306e+00 0 0 0
673 427 10 -8.3399999999999996e-01 -1.7011301261378360e+01 4.9720096412045728e-01 -1.1326592942078724e+00 1 0 0
38 38 8 0.0000000000000000e+00 -1.1703891057739918e+01 3.9158245702882453e+00 -1.8081290993229913e+00 0 0 0
212 272 9 4.1699999999999998e-01 -1.5607572556754215e+01 2.4298052562601957e+00 -3.3806388732493651e+00 0 0 0
50 50 8 0.0000000000000000e+00 -1.2903287692541538e+01 6.0337781338785357e+00 -6.4403974548216718e+00 0 0 0
53 53 8 0.0000000000000000e+00 -1.3868774885598445e+01 6.1365195863631428e+00 -1.9813611491824690e+00 0 0 0
211 272 9 4.1699999999999998e-01 -1.6770301769513875e+01 2.2126725323541447e+00 -4.3255247670666863e+00 0 0 0
57 57 8 0.0000000000000000e+00 -1.4558133089096620e+01 3.4623937102520079e+00 -1.4300159272728528e+00 0 0 0
248 284 9 4.1699999999999998e-01 -1.7215643198688372e+01 4.9998130014547328e+00 -1.6670196144040459e+00 0 0 0
278 294 9 4.1699999999999998e-01 -1.5000433192030695e+01 5.2651994648807019e+00 -6.7742125750017639e+00 0 0 1
258 288 10 -8.3399999999999996e-01 -1.9035182161908796e+01 4.7603706446791966e-01 -5.5629921728181513e+00 0 0 0
246 284 10 -8.3399999999999996e-01 -1.6513526335288681e+01 5.5758312222189153e+00 -1.3645848820880166e+00 0 0 0
207 271 10 -8.3399999999999996e-01 -1.6792530184946500e+01 3.0232541015770740e+00 -5.7511511791519947e+00 0 0 0
208 271 9 4.1699999999999998e-01 -1.7046590381832925e+01 3.1178208423895568e+00 -6.6691611969723290e+00 0 0 0
210 272 10 -8.3399999999999996e-01 -1.6435466047269358e+01 1.9570105725936762e+00 -3.4660168528440991e+00 0 0 0
56 56 8 0.0000000000000000e+00 -1.1675040100918833e+01 5.8307070277508544e+00 -3.9322847791605078e+00 0 0 0
262 289 9 4.1699999999999998e-01 -1.7833660675013146e+01 3.0843885775532409e+00 -1.5249133911830612e-01 0 0 0
245 283 9 4.1699999999999998e-01 -1.5687235219853768e+01 5.5587560455948219e+00 -3.1827906462393121e+00 0 0 0
247 284 9 4.1699999999999998e-01 -1.6695070987254553e+01 5.7073216179914263e+00 -4.3400245203218574e-01 0 0 0
674 427 9 4.1699999999999998e-01 -1.7076508503273921e+01 1.2569650036765314e+00 -5.5409342162292741e-01 1 0 0
22 22 8 0.0000000000000000e+00 -1.3712806523494670e+01 1.0316985742372771e+00 -2.7245545835815403e+00 0 0 0
33 33 8 0.0000000000000000e+00 -1.2050992575671348e+01 8.3023404565562386e-01 -6.4657824287344017e+00 0 0 0
249 285 10 -8.3399999999999996e-01 -1.8315499562211063e+01 3.7357483835270320e+00 -2.1392803623404406e+00 0 0 0
250 285 9 4.1699999999999998e-01 -1.7673986268815078e+01 3.0680306030070694e+00 -2.3818612783940183e+00 0 0 0
238 281 9 4.1699999999999998e-01 -1.4739002286942315e+01 9.0877051153325228e-01 -5.4086987150490948e+00 0 0 1
49 49 8 0.0000000000000000e+00 -1.3981765663465724e+01 3.2289645224865735e+00 -6.8131759559845024e+00 0 0 0
237 281 10 -8.3399999999999996e-01 -1.4957993046267351e+01 7.9718320266226689e-02 -5.8340777859104556e+00 0 0 1
251 285 9 4.1699999999999998e-01 -1.8792163925904344e+01 3.9161763612537355e+00 -2.9495079042328487e+00 0 0 0
277 294 9 4.1699999999999998e-01 -1.5819922754513048e+01 6.5380931065833456e+00 -6.7656203857631025e+00 0 0 1
209 271 9 4.1699999999999998e-01 -1.6897696567150568e+01 3.8999152877370178e+00 -5.3815067004551302e+00 0 0 0
675 427 9 4.1699999999999998e-01 -1.6930598813350986e+01 8.7023934300891170e-01 -2.0104755207955662e+00 1 0 0
244 283 9 4.1699999999999998e-01 -1.6543550584593230e+01 6.3423182810560181e+00 -4.1547214108746449e+00 0 0 0
260 288 9 4.1699999999999998e-01 -1.9069562810759940e+01 4.7124317640769825e-01 -4.6064218244901571e+00 0 0 0
276 294 10 -8.3399999999999996e-01 -1.5855876167700954e+01 5.6164031580480351e+00 -7.0214070820749646e+00 0 0 1
275 293 9 4.1699999999999998e-01 -1.6011920867790995e+01 6.0479745899375787e+00 5.1387735348959076e+00 0 0 0
42 42 8 0.0000000000000000e+00 -1.4542548183748838e+01 3.3083195890400425e+00 2.0657994778150219e+00 0 0 0
45 45 8 0.0000000000000000e+00 -1.5029405916809303e+01 4.4343667582552915e-01 1.6914260232718556e+00 0 0 0
46 46 8 0.0000000000000000e+00 -1.4670941817464948e+01 1.6151204079718497e+00 4.6380092648905613e+00 0 0 0
273 293 10 -8.3399999999999996e-01 -1.6651363993879947e+01 5.7260588376743566e+00 4.5033881578755395e+00 0 0 0
58 58 8 0.0000000000000000e+00 -1.3863130839368372e+01 6.3033009753409504e+00 2.7261181921235020e+00 0 0 0
61 61 8 0.0000000000000000e+00 -1.4165376809279836e+01 4.4334645793090255e+00 4.8628315840231906e+00 0 0 0
263 289 9 4.1699999999999998e-01 -1.7046744157565278e+01 3.2596095002886520e+00 1.1288966640710563e+00 0 0 0
274 293 9 4.1699999999999998e-01 -1.6942066317960023e+01 6.5099290412621960e+00 4.0372642438692274e+00 0 0 0
698 435 9 4.1699999999999998e-01 -1.7358877786519049e+01 3.3342487631697644e+00 4.9778477431935348e+00 1 0 0
48 48 8 0.0000000000000000e+00 -1.1784378157626005e+01 2.3892473359763327e+00 5.5094076866606203e+00 0 0 0
554 386 9 4.1699999999999998e-01 -1.8146247408562292e+01 1.7520527816436056e+00 3.0952453113135263e+00 1 0 0
59 59 8 0.0000000000000000e+00 -1.1893664953141199e+01 4.3587523781708013e+00 3.0669469380915948e+00 0 0 0
185 263 9 4.1699999999999998e-01 -1.6488481654217747e+01 5.1766085594050324e+00 2.5358271189915338e+00 0 -1 0
54 54 8 0.0000000000000000e+00 -1.2895289200908136e+01 5.1052033768209206e+00 4.5207867512399935e-01 0 0 0
697 435 10 -8.3399999999999996e-01 -1.7128068878108294e+01 3.3562387146292121e+00 5.9065433553418547e+00 1 0 0
228 278 10 -8.3399999999999996e-01 -1.7467358147359104e+01 7.8582307425827758e-01 6.3143489548309075e+00 0 0 0
261 289 10 -8.3399999999999996e-01 -1.7232994785089581e+01 2.6265174370766653e+00 4.3554467169863298e-01 0 0 0
230 278 9 4.1699999999999998e-01 -1.7118793872466291e+01 1.6706311284224522e+00 6.2054935581631376e+00 0 0 0
43 43 8 0.0000000000000000e+00 -1.2387474220109855e+01 1.5228837569542042e+00 2.7567642504835863e+00 0 0 0
553 386 9 4.1699999999999998e-01 -1.6700701751267587e+01 1.5917541227210257e+00 2.6750105145079353e+00 1 0 0
184 263 9 4.1699999999999998e-01 -1.7085462497495058e+01 6.2534130845134346e+00 1.6549178845135961e+00 0 -1 0
183 263 10 -8.3399999999999996e-01 -1.6700546238752612e+01 5.3775513179877548e+00 1.6242995758486005e+00 0 -1 0
552 386 10 -8.3399999999999996e-01 -1.7264495773203897e+01 2.0769027392041823e+00 3.2775044656520715e+00 1 0 0
699 435 9 4.1699999999999998e-01 -1.6831305774175277e+01 4.2534296686090034e+00 6.0588978932244482e+00 1 0 0
642 416 9 4.1699999999999998e-01 -1.7006669119549048e+01 3.1529995492650031e-01 4.0264726045392001e+00 1 0 0
41 41 8 0.0000000000000000e+00 -1.3112139881445705e+01 1.6460296861991000e+00 8.1289031551831592e-02 0 0 0
229 278 9 4.1699999999999998e-01 -1.8048831037910851e+01 8.4849284098263478e-01 7.0721046011282622e+00 0 0 0
3 3 8 0.0000000000000000e+00 -1.0797067352912462e+01 -6.0169116645557637e+00 -4.8235815899672199e+00 0 0 0
4 4 8 0.0000000000000000e+00 -1.0426492455506501e+01 -4.0175939947347006e+00 -6.7624002999050692e+00 0 0 0
85 85 8 0.0000000000000000e+00 -7.3867756157246927e+00 -2.2926424593503612e+00 -3.4223560200112271e+00 0 0 0
8 8 8 0.0000000000000000e+00 -1.0340533124773437e+01 -5.1567385240115398e+00 -2.2352500277789988e+00 0 0 0
19 19 8 0.0000000000000000e+00 -1.0082230964381502e+01 -3.0777932193152369e+00 -4.1430530984421363e+00 0 0 0
20 20 8 0.0000000000000000e+00 -9.7167746443837650e+00 -1.0824548086869301e+00 -6.2181282285529589e+00 0 0 0
88 88 8 0.0000000000000000e+00 -5.4010779478635973e+00 -3.4872977166414576e-01 -3.1189474842719367e+00 0 0 0
24 24 8 0.0000000000000000e+00 -9.3364689965837666e+00 -2.3108770792117128e-01 -3.5431366444281345e+00 0 0 0
65 65 8 0.0000000000000000e+00 -8.4023101473351094e+00 -6.1208893084039637e+00 -6.7610646643484849e+00 0 0 0
66 66 8 0.0000000000000000e+00 -7.9414714899653465e+00 -5.3114146382033027e+00 -4.2495021959008508e+00 0 0 0
67 67 8 0.0000000000000000e+00 -5.7271186032760610e+00 -5.2586199128797695e+00 -5.9841980210550316e+00 0 0 0
86 86 8 0.0000000000000000e+00 -9.5043266685362031e+00 -2.3192741465409021e+00 -1.4845025984743547e+00 0 0 0
87 87 8 0.0000000000000000e+00 -5.8651119262967866e+00 -2.4037211172709529e+00 -9.6517145461008658e-01 0 0 0
70 70 8 0.0000000000000000e+00 -7.6793696711175139e+00 -4.4734501156670792e+00 -1.7772248303380429e+00 0 0 0
73 73 8 0.0000000000000000e+00 -8.6677346082105249e+00 -6.4430677727572929e+00 -1.8237854517781121e-01 0 0 0
72 72 8 0.0000000000000000e+00 -4.1630266767978643e+00 -6.9483732136142029e+00 -4.2889685770711221e+00 0 0 0
81 81 8 0.0000000000000000e+00 -7.7082104336689765e+00 -3.1909873101342732e+00 -6.0925659789204731e+00 0 0 0
82 82 8 0.0000000000000000e+00 -7.1710751341916339e+00 -3.8096523058263937e-01 -5.4637479487603509e+00 0 0 0
83 83 8 0.0000000000000000e+00 -5.2348163498321378e+00 -4.3247620895678098e+00 -3.1495044208132690e+00 0 0 0
84 84 8 0.0000000000000000e+00 -5.0704420942591062e+00 -2.2431104338321766e+00 -5.2733102028688013e+00 0 0 0
71 71 8 0.0000000000000000e+00 -6.4544207775202542e+00 -6.9463012724868261e+00 -2.3402945501436951e+00 0 0 0
28 28 8 0.0000000000000000e+00 -1.1366788656836983e+01 -1.2980419466790993e-01 -1.3891788083052601e+00 0 0 0
101 101 8 0.0000000000000000e+00 -7.6795320195839141e+00 -1.2082635841699017e-01 -1.2441480441914985e+00 0 0 0
77 77 8 0.0000000000000000e+00 -8.5872000186991571e+00 -6.6660590534020976e+00 4.7643921640419418e+00 0 0 0
94 94 8 0.0000000000000000e+00 -7.5407821428977400e+00 -1.2824463136062574e+00 6.1856675387962543e+00 0 0 0
128 128 8 0.0000000000000000e+00 -4.7213835501654211e+00 -6.5157806373259524e+00 2.7631222759042888e+00 0 1 0
96 96 8 0.0000000000000000e+00 -4.3302638455739482e+00 -4.8595026466121677e-01 2.1562911733758310e+00 0 0 0
27 27 8 0.0000000000000000e+00 -9.8011643301739593e+00 -1.4146480463232900e+00 1.0091182120537410e+00 0 0 0
95 95 8 0.0000000000000000e+00 -5.9035368601803677e+00 -2.0259329957957983e+00 3.8419107281665354e+00 0 0 0
31 31 8 0.0000000000000000e+00 -1.0389599674105217e+01 -2.1555868763842563e+00 5.4798683861901889e+00 0 0 0
32 32 8 0.0000000000000000e+00 -1.0402463759099657e+01 -3.0733809767460107e-01 3.3447660265067376e+00 0 0 0
93 93 8 0.0000000000000000e+00 -8.7250942160066884e+00 -2.6087873279811724e+00 3.3000036353286522e+00 0 0 0
74 74 8 0.0000000000000000e+00 -9.5649993951938566e+00 -5.4031787325357588e+00 2.4023606044737131e+00 0 0 0
75 75 8 0.0000000000000000e+00 -5.9021747725444591e+00 -5.7151273657207611e+00 3.3220140010864968e-01 0 0 0
68 68 8 0.0000000000000000e+00 -5.5340920430539331e+00 -3.2472273414852557e+00 6.2768883335348278e+00 0 0 -1
52 52 8 0.0000000000000000e+00 -1.0890625457772591e+01 -6.8445304504516207e+00 6.8129626555502272e+00 0 1 -1
78 78 8 0.0000000000000000e+00 -8.1781111216188247e+00 -3.9667885318187461e+00 5.5518532556134046e+00 0 0 0
79 79 8 0.0000000000000000e+00 -6.0970007004189926e+00 -5.9862220717663002e+00 5.5985504887434470e+00 0 0 0
80 80 8 0.0000000000000000e+00 -6.8883460294205943e+00 -4.7778816920710163e+00 3.1574590151058946e+00 0 0 0
89 89 8 0.0000000000000000e+00 -7.8995639125903390e+00 -3.6586541343764289e+00 8.1335401723295886e-01 0 0 0
90 90 8 0.0000000000000000e+00 -7.0061385815200561e+00 -9.4307816354098628e-01 1.4751364993602121e+00 0 0 0
91 91 8 0.0000000000000000e+00 -4.9141035717464483e+00 -3.1129353380280405e+00 1.4904663344821483e+00 0 0 0
12 12 8 0.0000000000000000e+00 -1.0658817903691670e+01 -4.1394658974988072e+00 2.5133903997037405e-01 0 0 0
15 15 8 0.0000000000000000e+00 -1.0926697931142503e+01 -4.8576233620396847e+00 4.8518545604217502e+00 0 0 0
321 309 10 -8.3399999999999996e-01 -4.1321196482579712e+00 -7.0212295668170488e-01 6.5921588098272368e+00 0 0 0
16 16 8 0.0000000000000000e+00 -1.1443269802916580e+01 -3.0594811580087127e+00 2.7664482128958423e+00 0 0 0
322 309 9 4.1699999999999998e-01 -4.5891993852869106e+00 -4.5545066525931238e-02 6.0665967969032080e+00 0 0 0
323 309 9 4.1699999999999998e-01 -3.8580177287913435e+00 -1.3669013102853247e+00 5.9603600111515318e+00 0 0 0
35 35 8 0.0000000000000000e+00 -9.2086413648933103e+00 1.6028321161072367e+00 -5.7499029316661820e+00 0 0 0
120 120 8 0.0000000000000000e+00 -6.8673436195525461e+00 6.5762734972820347e+00 -5.1013434640801991e+00 0 0 0
39 39 8 0.0000000000000000e+00 -9.5949651238129441e+00 1.9594479711893735e+00 -1.6502607559765587e+00 0 0 0
40 40 8 0.0000000000000000e+00 -9.4138023645104827e+00 3.9085866524261701e+00 -3.7117843997631907e+00 0 0 0
118 118 8 0.0000000000000000e+00 -6.5845179445971445e+00 5.6518794686268219e+00 -1.8473422093215874e-01 0 0 0
69 69 8 0.0000000000000000e+00 -9.0075194207375535e+00 6.6231929793946049e+00 -3.0326842962817211e+00 0 -1 0
55 55 8 0.0000000000000000e+00 -9.0143899115478892e+00 4.6789833069301672e+00 -1.0443639888285898e+00 0 0 0
103 103 8 0.0000000000000000e+00 -4.8884780533213901e+00 5.3154140751759049e-01 -3.1380764248295862e-01 0 0 0
119 119 8 0.0000000000000000e+00 -4.2970652723871323e+00 5.4294352635703431e+00 -2.2287845239071036e+00 0 0 0
98 98 8 0.0000000000000000e+00 -7.4050173622284268e+00 1.9512511615660759e+00 -3.4617511173222626e+00 0 0 0
99 99 8 0.0000000000000000e+00 -5.3144559318972435e+00 1.6930923421724986e+00 -5.5833669077439341e+00 0 0 0
7 7 8 0.0000000000000000e+00 -1.1279769144978161e+01 6.6884721262037052e+00 -1.1725246628200392e+00 0 -1 0
117 117 8 0.0000000000000000e+00 -6.8659878394866674e+00 4.6287759613917334e+00 -2.9051220520531151e+00 0 0 0
102 102 8 0.0000000000000000e+00 -7.0252193540391117e+00 2.6297630654302537e+00 -6.7964903849637781e-01 0 0 0
116 116 8 0.0000000000000000e+00 -4.6619059980822293e+00 6.6035341617522327e+00 -7.0352515324031089e+00 0 0 0
104 104 8 0.0000000000000000e+00 -4.7903604053092428e+00 2.4530341825773609e+00 -2.7898602873359519e+00 0 0 0
113 113 8 0.0000000000000000e+00 -7.4727054772327834e+00 3.8355358354640829e+00 -5.7251132927310042e+00 0 0 0
114 114 8 0.0000000000000000e+00 -9.5573867876955170e+00 5.9141303287159586e+00 -5.7426780348892725e+00 0 0 0
115 115 8 0.0000000000000000e+00 -4.7127275642756441e+00 4.4775290595676527e+00 -4.9485345945456727e+00 0 0 0
37 37 8 0.0000000000000000e+00 -1.1228764375390886e+01 1.8130876720722038e+00 -3.9475806464327494e+00 0 0 0
51 51 8 0.0000000000000000e+00 -1.1142116329701384e+01 3.7234713118424545e+00 -6.0602742029613079e+00 0 0 0
108 108 8 0.0000000000000000e+00 -4.4372285140805587e+00 3.4093571124998152e+00 -5.3445844947000949e-02 0 0 0
111 111 8 0.0000000000000000e+00 -5.0636097726561893e+00 1.0702362107998988e+00 4.3933392430839247e+00 0 0 0
126 126 8 0.0000000000000000e+00 -7.6213419240528966e+00 5.8224829116985992e+00 6.6797408772824900e+00 0 0 0
36 36 8 0.0000000000000000e+00 -9.0953186137197655e+00 3.4637056854729016e+00 6.2088046959350525e+00 0 0 -1
127 127 8 0.0000000000000000e+00 -5.9274234677227273e+00 5.8827337612896535e+00 4.6054275022473163e+00 0 0 0
100 100 8 0.0000000000000000e+00 -5.4196349279316820e+00 3.7895190001108117e+00 6.4886136575193962e+00 0 0 -1
60 60 8 0.0000000000000000e+00 -1.0180310640163750e+01 5.9315314596928852e+00 1.3025322945253508e+00 0 0 0
97 97 8 0.0000000000000000e+00 -7.0297188288041683e+00 1.4434564927630575e+00 6.6095960391867399e+00 0 0 -1
64 64 8 0.0000000000000000e+00 -1.1393023957372183e+01 7.0314014646525269e+00 3.6396601066311063e+00 0 0 0
105 105 8 0.0000000000000000e+00 -8.9180806927583802e+00 1.1979020293657832e+00 9.5514425236943989e-01 0 0 0
106 106 8 0.0000000000000000e+00 -9.6996249038532110e+00 2.4240452388629046e+00 3.5123989677790952e+00 0 0 0
107 107 8 0.0000000000000000e+00 -6.2733946645605734e+00 1.7600888794117016e+00 1.8413889129720649e+00 0 0 0
109 109 8 0.0000000000000000e+00 -7.7531157759333578e+00 2.9697029190989688e-01 3.9203491855518058e+00 0 0 0
47 47 8 0.0000000000000000e+00 -9.6952870023649851e+00 6.2362963118469861e-01 6.0017751170993465e+00 0 0 0
110 110 8 0.0000000000000000e+00 -7.0891703187827417e+00 3.1472905385760046e+00 4.2576463420014941e+00 0 0 0
125 125 8 0.0000000000000000e+00 -9.1592129287492821e+00 5.1910488375426569e+00 3.9344896135375076e+00 0 0 0
44 44 8 0.0000000000000000e+00 -1.0839730524222039e+01 3.1841885976127062e+00 7.7342051661846944e-01 0 0 0
121 121 8 0.0000000000000000e+00 -8.1323175315959464e+00 3.9215991992866792e+00 1.6628229553077076e+00 0 0 0
122 122 8 0.0000000000000000e+00 -7.5860804951566427e+00 6.8021593334295298e+00 2.2368627285527030e+00 0 0 0
123 123 8 0.0000000000000000e+00 -5.3881101537121285e+00 4.5747755012132805e+00 2.2272909854271181e+00 0 0 0
63 63 8 0.0000000000000000e+00 -1.1327883667415602e+01 5.0484278808161518e+00 5.7316287356746205e+00 0 0 0
347 317 9 4.1699999999999998e-01 -4.1099796136473792e+00 4.2292629984349919e+00 5.0929913458723597e+00 0 0 0
369 325 10 -8.3399999999999996e-01 3.7345118225165774e+00 -4.7142449904428032e+00 -8.9600351126519828e-01 0 0 0
287 297 9 4.1699999999999998e-01 4.4680713786013349e-02 -4.3854372255198388e+00 -3.0617127067501890e+00 0 0 0
470 358 9 4.1699999999999998e-01 4.2682447567443632e-01 -3.5472383275129595e+00 -7.0901160682492268e+00 0 0 0
417 341 10 -8.3399999999999996e-01 2.9304123308490237e+00 -3.1345987986258925e+00 -3.3627061348600837e+00 0 1 0
418 341 9 4.1699999999999998e-01 2.6397772617511563e+00 -2.4387118969566339e+00 -2.7732109970861263e+00 0 1 0
289 298 9 4.1699999999999998e-01 -2.9325525206544665e+00 -1.3786520589638236e+00 -2.8716107057582643e+00 0 0 0
285 297 10 -8.3399999999999996e-01 5.7041611057867792e-01 -4.5320931590816915e+00 -3.8480498941010195e+00 0 0 0
382 329 9 4.1699999999999998e-01 -2.0546391886953335e+00 -3.3958689026623916e+00 -2.6238331574349227e+00 0 0 0
422 342 9 4.1699999999999998e-01 2.5064454882210288e+00 -1.7540850381488313e+00 -3.1026332968302089e-01 0 0 0
288 298 10 -8.3399999999999996e-01 -2.7871145099256696e+00 -2.1013117773301082e+00 -3.4822190617890008e+00 0 0 0
284 296 9 4.1699999999999998e-01 -3.0832595679268535e+00 -3.4990705460373932e+00 -5.4753001063099749e+00 0 0 0
358 321 9 4.1699999999999998e-01 -6.2774501062553856e-01 -1.7545452546544953e+00 -5.8886267669489625e+00 0 0 1
387 331 10 -8.3399999999999996e-01 -1.6805550837237473e-01 -5.7105582926911469e-01 -3.6088494780685063e+00 0 0 1
485 363 9 4.1699999999999998e-01 3.0496656459840348e+00 -6.4666370060272662e+00 -1.1399261494070003e+00 0 1 1
474 360 10 -8.3399999999999996e-01 2.9764331423080242e-01 -5.2086207748984616e+00 -6.5885489593510838e-01 0 0 1
391 332 9 4.1699999999999998e-01 1.7748228337913767e+00 -1.4294563936318624e-01 -3.8008213187691493e+00 0 0 0
286 297 9 4.1699999999999998e-01 3.1013718652410077e-01 -3.8305983747521086e+00 -4.4450354828357037e+00 0 0 0
427 344 9 4.1699999999999998e-01 8.1456381824093016e-01 -6.4729820990135067e+00 -6.1112073120219090e+00 0 1 1
381 329 10 -8.3399999999999996e-01 -1.5888458455291414e+00 -4.0482497141814573e+00 -2.1007005800348320e+00 0 0 0
383 329 9 4.1699999999999998e-01 -1.9489030209165128e+00 -3.9505824994785086e+00 -1.2191951676973536e+00 0 0 0
388 331 9 4.1699999999999998e-01 -9.3296541302891045e-01 -1.1327822825171712e+00 -3.7337817446138821e+00 0 0 1
282 296 10 -8.3399999999999996e-01 -2.7010934608598154e+00 -4.3753606339647853e+00 -5.5232228443653790e+00 0 0 0
306 304 10 -8.3399999999999996e-01 -2.4533435515344011e+00 -4.8876065790945916e-01 -5.5525721813916897e+00 0 0 0
293 299 9 4.1699999999999998e-01 -1.2556021824360268e+00 -6.8710125877564181e+00 -2.4406369797395100e+00 0 0 0
421 342 9 4.1699999999999998e-01 1.2444988211227286e+00 -1.2441820963973251e+00 -9.7312439444481191e-01 0 0 0
92 92 8 0.0000000000000000e+00 -3.0760251049820933e+00 -1.8290048243094472e+00 -3.9889495902229460e-01 0 0 0
420 342 10 -8.3399999999999996e-01 2.1695267710202013e+00 -1.4225793172772776e+00 -1.1426223723445861e+00 0 0 0
359 321 9 4.1699999999999998e-01 -1.2449722622291028e+00 -3.1368224460326930e+00 -5.8732814691611388e+00 0 0 1
371 325 9 4.1699999999999998e-01 2.7813987372885904e+00 -4.6312980907490005e+00 -9.2645180879950828e-01 0 0 0
426 344 10 -8.3399999999999996e-01 1.6140538184764097e+00 -6.3784218509315300e+00 -5.5934178310460858e+00 0 1 1
357 321 10 -8.3399999999999996e-01 -4.0205745717416436e-01 -2.6845623151442912e+00 -5.9077379155306842e+00 0 0 1
511 372 9 4.1699999999999998e-01 3.3329136630530751e+00 -6.4375772709017554e+00 -4.9745618341477522e+00 0 1 1
475 360 9 4.1699999999999998e-01 -3.4326023711413939e-01 -4.9311971076276695e+00 -1.3134620970591921e+00 0 0 1
484 363 9 4.1699999999999998e-01 1.8206045284309620e+00 -7.0485521205342359e+00 -1.8052672353883541e+00 0 1 1
428 344 9 4.1699999999999998e-01 1.4177568625210459e+00 -5.6744665604900071e+00 -4.9752379999526655e+00 0 1 1
307 304 9 4.1699999999999998e-01 -2.8702268432512814e+00 -5.1849873960057424e-01 -6.4137085392667439e+00 0 0 0
419 341 9 4.1699999999999998e-01 2.1391622996244206e+00 -3.6420115850309172e+00 -3.5435029627665622e+00 0 1 0
290 298 9 4.1699999999999998e-01 -2.7812135479946720e+00 -1.6883681115231155e+00 -4.3457435608690753e+00 0 0 0
283 296 9 4.1699999999999998e-01 -3.0360020189339854e+00 -4.7387342406068749e+00 -6.3429958136152447e+00 0 0 0
76 76 8 0.0000000000000000e+00 -3.8254743808873739e+00 -6.1062873868828627e+00 -1.4863420931546778e+00 0 0 0
329 311 9 4.1699999999999998e-01 1.1774527632157288e+00 -1.9303953323441256e-01 -6.4633625898433644e+00 0 0 0
392 332 9 4.1699999999999998e-01 3.0622772644193206e+00 -7.2352579397012534e-02 -3.0074910589873927e+00 0 0 0