LAMMPS data file via write_data, version 16 Mar 2018, timestep = 600

714 atoms
12 atom types
403 bonds
8 bond types
260 angles
13 angle types
132 dihedrals
18 dihedral types

-1.9725386000000000e+01 1.9725386000000000e+01 xlo xhi
-7.3970199000000001e+00 7.3970199000000001e+00 ylo yhi
-7.3970199000000001e+00 7.3970199000000001e+00 zlo zhi

Masses

1 1.008
2 1.008
3 12.011
4 12.011
5 15.9994
6 15.9994
7 32.06
8 196.966
9 1.008
10 15.9994
11 35.45
12 22.9898

Pair Coeffs # lj/charmmfsw/coul/long

1 0.028 2.38761 0.028 2.38761
2 0.024 2.38761 0.024 2.38761
3 0.056 3.58141 0.01 3.38542
4 0.078 3.63487 0.01 3.38542
5 0.1 2.93997 0.1 2.93997
6 0.12 3.02906 0.12 3.02906
7 0.47 3.74177 0.47 3.74177
8 5.29 2.62904 5.29 2.62904
9 0.046 0.400014 0.046 0.400014
10 0.1521 3.15057 0.1521 3.15057
11 0.15 4.04468 0.15 4.04468
12 0.0469 2.42993 0.0469 2.42993

Bond Coeffs # harmonic

1 222.5 1.53
2 222.5 1.528
3 309 1.111
4 340 1.43
5 322 1.111
6 450 0.9572
7 540 1.448
8 250 1.575

Angle Coeffs # charmm

1 58.35 113.6 11.16 2.561
2 58 115 8 2.561
3 26.5 110.1 22.53 2.179
4 75.7 110.1 0 0
5 34.6 110.1 22.53 2.179
6 15 109 27 1.9
7 34.6 110.1 22.53 2.179
8 35.5 109 5.4 1.802
9 60 109.5 0 0
10 35.5 108.4 5.4 1.802
11 55 104.52 0 0
12 130 109.47 35 2.45
13 85 98 0 0

Dihedral Coeffs # charmmfsw

1 0.101 2 0 1
2 0.142 3 180 0
3 0.074 4 0 0
4 0.097 5 0 0
5 0.162 2 0 1
6 0.047 3 180 0
7 0.105 4 0 0
8 0.177 5 0 0
9 0.19 3 0 1
10 0 3 0 1
11 0.16 3 0 1
12 0 3 0 1
13 0 3 0 1
14 0.19 3 0 1
15 0.19 3 0 1
16 0.19 3 0 1
17 0.16 3 0 1
18 0 3 0 1

Atoms # full

1 1 8 0.0000000000000000e+00 -1.3355464498123757e+01 -6.2263185418948277e+00 -5.9931420504709161e+00 0 0 0
2 2 8 0.0000000000000000e+00 -1.2993913361076398e+01 -4.5468566218241575e+00 -3.7223432461345869e+00 0 0 0
3 3 8 0.0000000000000000e+00 -1.0954719242885314e+01 -6.6177127663695696e+00 -4.0333625660382699e+00 0 0 0
4 4 8 0.0000000000000000e+00 -1.0867544098753587e+01 -4.8811213044197626e+00 -6.4253898394969786e+00 0 0 0
5 5 8 0.0000000000000000e+00 -1.3702616660223489e+01 -7.2273436110216736e+00 -3.2144217693066635e+00 0 0 0
6 6 8 0.0000000000000000e+00 -1.3412009123002631e+01 -4.9970435568590146e+00 -8.7252041873854591e-01 0 0 0
7 7 8 0.0000000000000000e+00 -1.1813206937493860e+01 -7.3894072689104062e+00 -1.1462535462346686e+00 0 0 0
8 8 8 0.0000000000000000e+00 -1.0545936991614891e+01 -4.9516509405305129e+00 -1.4522032895078996e+00 0 0 0
17 17 8 0.0000000000000000e+00 -1.3411516167864871e+01 -3.4678906182722766e+00 -6.4854392587395839e+00 0 0 0
18 18 8 0.0000000000000000e+00 -1.2514451694011349e+01 -1.8159779024529374e+00 -4.4584133759196360e+00 0 0 0
19 19 8 0.0000000000000000e+00 -1.0329818389938179e+01 -3.6989568466677492e+00 -3.9047856794411913e+00 0 0 0
20 20 8 0.0000000000000000e+00 -1.0179838422887567e+01 -1.9532665676052940e+00 -6.1202810157708294e+00 0 0 0
21 21 8 0.0000000000000000e+00 -1.4804189796422559e+01 -2.4483643369355592e+00 -2.8144662751499467e+00 0 0 0
22 22 8 0.0000000000000000e+00 -1.3333562123980750e+01 7.7032947589869144e-02 -1.9875291374474733e+00 0 0 0
23 23 8 0.0000000000000000e+00 -1.2068763293493753e+01 -2.5709664822477349e+00 -1.8577382751431664e+00 0 0 0
24 24 8 0.0000000000000000e+00 -9.9074178734467804e+00 -9.5427648402269583e-01 -3.4263905033656754e+00 0 0 0
171 259 10 -8.3399999999999996e-01 -1.6341737282220105e+01 -5.7515181160658315e+00 -7.1669423325453723e+00 0 0 0
172 259 9 4.1699999999999998e-01 -1.6324470042408631e+01 -4.7745480081065956e+00 -7.2511448311861155e+00 0 0 0
173 259 9 4.1699999999999998e-01 -1.7261364521646925e+01 -5.9475732767302985e+00 7.3298063100945052e+00 0 0 -1
174 260 10 -8.3399999999999996e-01 -1.6500220501703460e+01 -3.0862869737069816e+00 7.2091264090757869e+00 0 0 -1
175 260 9 4.1699999999999998e-01 -1.5974914988462302e+01 -2.4212782995391446e+00 -7.0914822725466573e+00 0 0 0
176 260 9 4.1699999999999998e-01 -1.7405989099112318e+01 -2.8041321041929805e+00 -7.3530843624131803e+00 0 0 0
177 261 10 -8.3399999999999996e-01 -1.5967280651019948e+01 -7.3394152709443263e+00 -5.0697984597711478e+00 0 0 0
178 261 9 4.1699999999999998e-01 -1.6221677960052894e+01 -6.7697211628293452e+00 -5.8322889231914870e+00 0 0 0
179 261 9 4.1699999999999998e-01 -1.5027404582227280e+01 -7.1252822009986865e+00 -5.0136354540967059e+00 0 0 0
180 262 10 -8.3399999999999996e-01 -1.8655414064042642e+01 -3.7640266094919523e+00 -2.7122381159098290e+00 0 0 0
181 262 9 4.1699999999999998e-01 -1.8129028229969055e+01 -3.2976423748353749e+00 -3.3924968714115500e+00 0 0 0
359 321 9 4.1699999999999998e-01 -3.9558466009832891e+00 5.7683827158589098e+00 6.0401175638111235e+00 0 0 0
183 263 10 -8.3399999999999996e-01 -1.7149824453536230e+01 -5.6809779178734914e+00 -1.3407305838991603e+00 0 0 0
184 263 9 4.1699999999999998e-01 -1.6831882538533861e+01 -5.1226811195564244e+00 -6.0064346939443880e-01 0 0 0
185 263 9 4.1699999999999998e-01 -1.7671703005627538e+01 -5.0199335819317419e+00 -1.8424100028844879e+00 0 0 0
186 264 10 -8.3399999999999996e-01 -1.6659036438317543e+01 -3.9449704969606501e+00 6.8401030990769662e-01 0 0 0
187 264 9 4.1699999999999998e-01 -1.6216678502848481e+01 -3.3733479070014298e+00 1.3341189423861932e+00 0 0 0
188 264 9 4.1699999999999998e-01 -1.6992497733891554e+01 -3.2399503146283442e+00 8.8010063435509184e-02 0 0 0
207 271 10 -8.3399999999999996e-01 -1.9023483314597399e+01 -2.3222954052537386e+00 -6.6709058373267638e+00 0 0 0
208 271 9 4.1699999999999998e-01 -1.8637130410800314e+01 -2.2288987621527929e+00 -5.7732776226426799e+00 0 0 0
182 262 9 4.1699999999999998e-01 -1.9147190870440738e+01 -2.9951014494667523e+00 -2.3613510619699198e+00 0 0 0
213 273 10 -8.3399999999999996e-01 -1.7465000140649494e+01 -1.8716731788116843e+00 -4.3865355342821903e+00 0 0 0
214 273 9 4.1699999999999998e-01 -1.6633419711349578e+01 -1.7225081475964164e+00 -4.8846407117189514e+00 0 0 0
215 273 9 4.1699999999999998e-01 -1.7405346484292473e+01 -1.1612831747783892e+00 -3.7266905091412448e+00 0 0 0
219 275 10 -8.3399999999999996e-01 -1.7226685050261175e+01 -1.6359711883303101e+00 -6.4707892129260869e-01 0 0 0
220 275 9 4.1699999999999998e-01 -1.6724797580222521e+01 -1.0414771912511886e+00 -1.2444025469860318e+00 0 0 0
221 275 9 4.1699999999999998e-01 -1.8125638459313848e+01 -1.4989371575950390e+00 -1.0131385748589281e+00 0 0 0
65 65 8 0.0000000000000000e+00 -8.5610085619464886e+00 -6.7412670220417192e+00 -6.1300068028104837e+00 0 0 0
66 66 8 0.0000000000000000e+00 -8.3359347991343835e+00 -5.6873177845295464e+00 -3.3531908181286023e+00 0 0 0
67 67 8 0.0000000000000000e+00 -6.0085925991439089e+00 -5.8710896092506637e+00 -5.3173182845315878e+00 0 0 0
68 68 8 0.0000000000000000e+00 -5.9656828410165215e+00 -4.0436995019153876e+00 7.2493018949304284e+00 0 0 -1
69 69 8 0.0000000000000000e+00 -9.2951345759084312e+00 6.6816481646779415e+00 -2.1255394693365708e+00 0 -1 0
70 70 8 0.0000000000000000e+00 -7.7978580570326184e+00 -4.5395085862303581e+00 -7.3864576091201672e-01 0 0 0
71 71 8 0.0000000000000000e+00 -6.8270282427718527e+00 -7.0733072565970181e+00 -1.0289202657208258e+00 0 0 0
72 72 8 0.0000000000000000e+00 -4.0521348365852914e+00 -7.0952193197518367e+00 -1.4552937985243903e+00 0 0 0
81 81 8 0.0000000000000000e+00 -8.1224005359369240e+00 -3.9077247535439388e+00 -5.6532550308010290e+00 0 0 0
82 82 8 0.0000000000000000e+00 -7.6097237462724676e+00 -1.0432981518370223e+00 -5.2307464029866164e+00 0 0 0
83 83 8 0.0000000000000000e+00 -5.6782334351847537e+00 -4.8963928570032449e+00 -2.6459631911507908e+00 0 0 0
84 84 8 0.0000000000000000e+00 -5.5016460199964650e+00 -2.9975950491079026e+00 -4.7970572131566636e+00 0 0 0
85 85 8 0.0000000000000000e+00 -7.7741250992314521e+00 -2.8088833840464509e+00 -2.9728677801425136e+00 0 0 0
86 86 8 0.0000000000000000e+00 -9.5741144204681490e+00 -2.3482172189499639e+00 -7.0883004280460271e-01 0 0 0
87 87 8 0.0000000000000000e+00 -6.1713271705678139e+00 -2.3122989246397263e+00 -6.2501390807763080e-01 0 0 0
88 88 8 0.0000000000000000e+00 -5.8197361260145968e+00 -6.6671863460504144e-01 -2.9830356700341283e+00 0 0 0
279 295 10 -8.3399999999999996e-01 -3.5418407587300806e+00 -6.3058871905168061e+00 -7.0177455518527019e+00 0 0 0
280 295 9 4.1699999999999998e-01 -3.0086490489120044e+00 -5.5391926190918603e+00 -6.7229272308911403e+00 0 0 0
281 295 9 4.1699999999999998e-01 -3.6575452351125395e+00 -6.7903368412185765e+00 -6.1685115428812427e+00 0 0 0
282 296 10 -8.3399999999999996e-01 -2.2306299928795084e+00 -3.9083903309805303e+00 -6.7113365286737361e+00 0 0 0
283 296 9 4.1699999999999998e-01 -2.4995973896133794e+00 -3.4247407213451271e+00 7.2733754439994982e+00 0 0 -1
284 296 9 4.1699999999999998e-01 -2.4005070250527445e+00 -3.1973050266746443e+00 -6.0541081913065140e+00 0 0 0
285 297 10 -8.3399999999999996e-01 -2.3597347403570819e+00 -5.3398474078641565e+00 -3.6399069049249668e+00 0 0 0
313 306 9 4.1699999999999998e-01 -7.7052154121822158e-01 -5.2525464550504319e-01 -2.3229710977002216e+00 0 0 0
287 297 9 4.1699999999999998e-01 -2.8170832099633896e+00 -4.7000429896695906e+00 -3.0558491822985436e+00 0 0 0
288 298 10 -8.3399999999999996e-01 -3.0620237487240090e+00 -3.3699518850650407e+00 -1.8564896161450168e+00 0 0 0
289 298 9 4.1699999999999998e-01 -2.4578578084234373e+00 -2.6070037607798464e+00 -1.9954542115488094e+00 0 0 0
290 298 9 4.1699999999999998e-01 -3.8557403897733735e+00 -2.9366705565341786e+00 -1.5246955559900621e+00 0 0 0
291 299 10 -8.3399999999999996e-01 -1.7696124410055449e+00 -5.2457489471159535e+00 -1.9880348638770376e-01 0 0 0
292 299 9 4.1699999999999998e-01 -2.2390671956290107e+00 -4.6619374474981292e+00 -8.2700590562613974e-01 0 0 0
293 299 9 4.1699999999999998e-01 -1.9244854817479740e+00 -4.7442134664636963e+00 6.3016597182737966e-01 0 0 0
306 304 10 -8.3399999999999996e-01 -2.6467612803149425e+00 -1.5639503252455056e+00 -5.4118488481713349e+00 0 0 0
307 304 9 4.1699999999999998e-01 -1.8491773293781342e+00 -1.0808243805437554e+00 -5.6988602454622077e+00 0 0 0
308 304 9 4.1699999999999998e-01 -3.0204409682786539e+00 -9.1737990214892129e-01 -4.7846096214108993e+00 0 0 0
312 306 10 -8.3399999999999996e-01 -1.4227398296563498e+00 -1.2332370520170293e+00 -2.4939544792419062e+00 0 0 0
698 435 9 4.1699999999999998e-01 -1.9273948007588803e+01 4.3620644799657473e+00 -1.1052351922814678e+00 1 0 0
314 306 9 4.1699999999999998e-01 -2.0977756613529928e+00 -6.7962282685389874e-01 -2.9401630353762367e+00 0 0 0
33 33 8 0.0000000000000000e+00 -1.1978865449612989e+01 1.7647778985091240e+00 -7.1157536682246576e+00 0 0 0
34 34 8 0.0000000000000000e+00 -1.3764383240316393e+01 2.9589841172254863e+00 -5.1182150953093668e+00 0 0 0
35 35 8 0.0000000000000000e+00 -9.6116605249312475e+00 8.9429964255001981e-01 -5.8025782109696946e+00 0 0 0
36 36 8 0.0000000000000000e+00 -9.5698973953208579e+00 2.7022630374378935e+00 6.6229788538083048e+00 0 0 -1
37 37 8 0.0000000000000000e+00 -1.1982957456944485e+01 8.5991661210001580e-01 -4.4022373415241196e+00 0 0 0
38 38 8 0.0000000000000000e+00 -1.2602774332347492e+01 2.8436626049711262e+00 -2.5524135357298636e+00 0 0 0
39 39 8 0.0000000000000000e+00 -1.0448422585935869e+01 1.1606070465905540e+00 -1.7415379256005017e+00 0 0 0
40 40 8 0.0000000000000000e+00 -1.0175377879309229e+01 3.0290517083755675e+00 -3.9401677842021479e+00 0 0 0
49 49 8 0.0000000000000000e+00 -1.3835512887211960e+01 3.9200047115762109e+00 7.0112019771845890e+00 0 0 -1
50 50 8 0.0000000000000000e+00 -1.3530539074536598e+01 5.7882511343995597e+00 -5.5622360552412555e+00 0 0 0
51 51 8 0.0000000000000000e+00 -1.1250850699634549e+01 4.2323142679711800e+00 -6.1595291829961454e+00 0 0 0
52 52 8 0.0000000000000000e+00 -1.1107678874074587e+01 6.9971996061696817e+00 -6.6720415276355496e+00 0 0 0
53 53 8 0.0000000000000000e+00 -1.4619156122479726e+01 4.8588874954032502e+00 -2.9942699657241891e+00 0 0 0
54 54 8 0.0000000000000000e+00 -1.2939199211787418e+01 4.9090072953487693e+00 -7.0221962972049978e-01 0 0 0
55 55 8 0.0000000000000000e+00 -1.0222294735403494e+01 4.0379247430923950e+00 -1.3025175078159825e+00 0 0 0
56 56 8 0.0000000000000000e+00 -1.1716268894879564e+01 5.4475415745177322e+00 -3.3627541612992227e+00 0 0 0
210 272 10 -8.3399999999999996e-01 -1.6340340986517937e+01 1.3470402806613730e+00 -6.0684940656119704e+00 0 0 0
211 272 9 4.1699999999999998e-01 -1.6402350815607299e+01 1.8629155878992065e+00 -5.2385496460651577e+00 0 0 0
212 272 9 4.1699999999999998e-01 -1.6303977899883243e+01 2.0689965561556360e+00 -6.7350149560238988e+00 0 0 0
216 274 10 -8.3399999999999996e-01 -1.9150841110656543e+01 1.1646966550707283e+00 -3.6718211100880147e+00 0 0 0
217 274 9 4.1699999999999998e-01 -1.8245146385834346e+01 1.5181260301948838e+00 -3.7329571336315821e+00 0 0 0
358 321 9 4.1699999999999998e-01 -3.8658020629445038e+00 6.8258751008148169e+00 7.1386950194556604e+00 0 0 0
222 276 10 -8.3399999999999996e-01 -1.6470698712458418e+01 4.0528433032169803e-01 -2.2638098759944385e+00 0 0 0
223 276 9 4.1699999999999998e-01 -1.6269610339884562e+01 1.1579498815186071e+00 -2.8488335313775992e+00 0 0 0
224 276 9 4.1699999999999998e-01 -1.6800200905579661e+01 8.9008937117753084e-01 -1.4750398937271085e+00 0 0 0
243 283 10 -8.3399999999999996e-01 -1.6905489559440227e+01 3.1576947331339671e+00 6.7277949256026321e+00 0 0 -1
244 283 9 4.1699999999999998e-01 -1.6929753644574273e+01 4.1366665467812451e+00 6.7780465675266566e+00 0 0 -1
245 283 9 4.1699999999999998e-01 -1.7843978386518668e+01 2.9592316733190689e+00 6.9200918395768944e+00 0 0 -1
246 284 10 -8.3399999999999996e-01 -1.6479959402774345e+01 4.7886662716099169e+00 -5.4742078152319031e+00 0 0 0
247 284 9 4.1699999999999998e-01 -1.6214501822899049e+01 5.6742566297348889e+00 -5.1630450558033223e+00 0 0 0
248 284 9 4.1699999999999998e-01 -1.6809280571898444e+01 5.0375451359874699e+00 -6.3571018910537580e+00 0 0 0
249 285 10 -8.3399999999999996e-01 -1.6751787790725253e+01 2.7324385084570064e+00 -3.7519968232915772e+00 0 0 0
250 285 9 4.1699999999999998e-01 -1.6608338958482349e+01 3.4885716204527788e+00 -4.3738080825961747e+00 0 0 0
251 285 9 4.1699999999999998e-01 -1.7037631291278693e+01 3.2561361547039089e+00 -2.9671954936621900e+00 0 0 0
369 325 10 -8.3399999999999996e-01 -2.8837332222768913e-01 -3.4219429325219677e+00 -3.8939696990419779e+00 0 0 0
253 286 9 4.1699999999999998e-01 -1.8587929338450945e+01 6.3288771527714038e+00 -3.6769812694802169e+00 0 0 0
650 419 9 4.1699999999999998e-01 -1.9395396055030957e+01 -3.3866746259802577e-01 -2.6137685396756893e+00 1 0 0
255 287 10 -8.3399999999999996e-01 -1.7550844817170280e+01 4.3740894683855780e+00 -1.7629675835513068e+00 0 0 0
256 287 9 4.1699999999999998e-01 -1.7364675397287801e+01 5.2841654983374360e+00 -2.0938942497108544e+00 0 0 0
257 287 9 4.1699999999999998e-01 -1.7119487369997522e+01 4.4168716156522425e+00 -8.8259036320740802e-01 0 0 0
258 288 10 -8.3399999999999996e-01 -1.7104267636634912e+01 6.8181905984538425e+00 -2.7504728332341344e+00 0 0 0
259 288 9 4.1699999999999998e-01 -1.6640997242354207e+01 7.0968224526456316e+00 -3.5696113063955277e+00 0 0 0
260 288 9 4.1699999999999998e-01 -1.7063091690624724e+01 -7.1412884469486562e+00 -2.2311905244951209e+00 0 1 0
97 97 8 0.0000000000000000e+00 -7.4145847910099141e+00 7.6808720492772542e-01 7.2669238124123812e+00 0 0 -1
98 98 8 0.0000000000000000e+00 -7.9948869345674947e+00 1.3350387944524997e+00 -3.5251395246022335e+00 0 0 0
99 99 8 0.0000000000000000e+00 -5.7322109736573319e+00 1.1921674097250023e+00 -5.2277121463749028e+00 0 0 0
100 100 8 0.0000000000000000e+00 -5.6547256425339105e+00 3.0749747228745905e+00 -7.3941965253368283e+00 0 0 0
101 101 8 0.0000000000000000e+00 -8.0085790924367775e+00 -2.4640805765045612e-01 -1.2670898810691456e+00 0 0 0
102 102 8 0.0000000000000000e+00 -7.9627577273318773e+00 2.4312461814194339e+00 -6.6675355612087650e-01 0 0 0
103 103 8 0.0000000000000000e+00 -5.6109373323105478e+00 4.3568122607715087e-01 5.8721166626064171e-02 0 0 0
104 104 8 0.0000000000000000e+00 -5.5852018727093578e+00 2.2007363741428314e+00 -2.2563183547249976e+00 0 0 0
113 113 8 0.0000000000000000e+00 -7.9701475970781326e+00 3.2664974123825781e+00 -5.7560440332900091e+00 0 0 0
114 114 8 0.0000000000000000e+00 -9.2453267708425546e+00 5.7126969651640076e+00 -4.7578066725510375e+00 0 0 0
115 115 8 0.0000000000000000e+00 -5.3980118632064142e+00 4.0122266592218292e+00 -4.4654033835420339e+00 0 0 0
116 116 8 0.0000000000000000e+00 -6.5522971048800036e+00 5.8441563899430014e+00 -6.2598811954048639e+00 0 0 0
117 117 8 0.0000000000000000e+00 -7.7963416103834673e+00 4.1637402754236108e+00 -2.8916061889969726e+00 0 0 0
118 118 8 0.0000000000000000e+00 -7.8573305414182348e+00 5.2578075341297001e+00 -1.6537461751372487e-01 0 0 0
119 119 8 0.0000000000000000e+00 -5.4147802001187504e+00 5.1493917567106005e+00 -1.6953905126280766e+00 0 0 0
120 120 8 0.0000000000000000e+00 -6.7598159619559972e+00 6.7423558917969491e+00 -3.6392066924020292e+00 0 0 0
309 305 10 -8.3399999999999996e-01 -5.1763530810587377e-01 3.1114825045162691e-03 -6.3359502903706897e+00 0 0 0
310 305 9 4.1699999999999998e-01 -2.4405129226205938e-01 9.3226140271365932e-01 -6.1817658161873617e+00 0 0 0
311 305 9 4.1699999999999998e-01 -1.1501573449409550e+00 1.0911747042503375e-01 -7.0799191379497675e+00 0 0 0
315 307 10 -8.3399999999999996e-01 -3.2356410074830806e+00 4.4138242746333223e-01 -3.6647445788690960e+00 0 0 0
316 307 9 4.1699999999999998e-01 -2.8579263640300328e+00 1.3457903386325663e+00 -3.7709212356173958e+00 0 0 0
317 307 9 4.1699999999999998e-01 -4.1401705087791605e+00 6.6316699845905724e-01 -3.4162515008499312e+00 0 0 0
324 310 10 -8.3399999999999996e-01 -2.7716176351208959e+00 3.9003763221895928e+00 -6.3798632479970347e+00 0 0 0
325 310 9 4.1699999999999998e-01 -1.8990915506644326e+00 4.3237686331820413e+00 -6.5194692490792345e+00 0 0 0
326 310 9 4.1699999999999998e-01 -3.3558261088735115e+00 4.6289602308546689e+00 -6.7011956679700520e+00 0 0 0
327 311 10 -8.3399999999999996e-01 -3.1172727142276652e-01 5.0107560145896004e+00 -6.8877972098483955e+00 0 0 0
357 321 10 -8.3399999999999996e-01 -3.9206091719205447e+00 5.8590051576134723e+00 7.0086555768556718e+00 0 0 0
329 311 9 4.1699999999999998e-01 -4.2079246839386236e-01 5.3423967844339595e+00 6.9902940378292788e+00 0 0 -1
330 312 10 -8.3399999999999996e-01 -2.3665378702427478e+00 2.9619272490089994e+00 -3.8591558118363567e+00 0 0 0
331 312 9 4.1699999999999998e-01 -2.4337595723104100e+00 3.8281471003050118e+00 -3.3943576535806117e+00 0 0 0
332 312 9 4.1699999999999998e-01 -2.5507264030689423e+00 3.2602216644155169e+00 -4.7798532546959294e+00 0 0 0
333 313 10 -8.3399999999999996e-01 -3.6200008378278308e+00 7.1619078274127519e+00 -4.5865021626351661e+00 0 0 0
334 313 9 4.1699999999999998e-01 -3.2234563616175484e+00 -6.8516957578172315e+00 -4.1540449900845626e+00 0 1 0
335 313 9 4.1699999999999998e-01 -3.4041607632824160e+00 6.4460692922088469e+00 -3.9639399385427847e+00 0 0 0
336 314 10 -8.3399999999999996e-01 -2.5049961361160680e+00 5.3759900768759170e+00 -2.6263257666437458e+00 0 0 0
337 314 9 4.1699999999999998e-01 -1.8953677939219995e+00 6.1161173135769786e+00 -2.4406932705545707e+00 0 0 0
338 314 9 4.1699999999999998e-01 -2.7635342448849154e+00 5.1521877149467077e+00 -1.7020622149522353e+00 0 0 0
339 315 10 -8.3399999999999996e-01 -9.8814912067094518e-01 -7.1467508780797226e+00 -2.1020521301035369e+00 0 1 0
340 315 9 4.1699999999999998e-01 -1.3749014403085924e+00 -6.5503388737322243e+00 -2.7768836035469810e+00 0 1 0
341 315 9 4.1699999999999998e-01 -1.1857120319680543e+00 -6.6170145514421828e+00 -1.3033836888836898e+00 0 1 0
9 9 8 0.0000000000000000e+00 -1.4670345374330370e+01 7.2022446753863134e+00 -4.8184072992446608e-01 0 -1 0
10 10 8 0.0000000000000000e+00 -1.4071825482619960e+01 -4.5216728301627347e+00 2.0225790638123913e+00 0 0 0
11 11 8 0.0000000000000000e+00 -1.1823485790867746e+01 -6.2619614041453895e+00 1.4889311413632469e+00 0 0 0
12 12 8 0.0000000000000000e+00 -1.1652287135844627e+01 -3.4728281980703852e+00 8.7548646764129945e-01 0 0 0
13 13 8 0.0000000000000000e+00 -1.3386623671247550e+01 -6.7371156351687302e+00 3.8194288710994067e+00 0 0 0
14 14 8 0.0000000000000000e+00 -1.3529311196996185e+01 -5.0210454262131234e+00 6.0265836013120584e+00 0 0 0
15 15 8 0.0000000000000000e+00 -1.1073272007477053e+01 -6.2755239750466583e+00 5.6894141252744355e+00 0 0 0
16 16 8 0.0000000000000000e+00 -1.1734797091845769e+01 -4.1040609686338341e+00 3.6825451873499451e+00 0 0 0
25 25 8 0.0000000000000000e+00 -1.4193134232786678e+01 -2.3082324447409057e+00 -1.0709591692202789e-02 0 0 0
26 26 8 0.0000000000000000e+00 -1.3261326406524830e+01 -1.7593924645651284e+00 2.6163969440806887e+00 0 0 0
27 27 8 0.0000000000000000e+00 -1.0397896758130928e+01 -1.3498911112033951e+00 2.7141640768503428e+00 0 0 0
28 28 8 0.0000000000000000e+00 -1.1748135501480645e+01 -6.8453569287318339e-01 2.2441367199403886e-01 0 0 0
29 29 8 0.0000000000000000e+00 -1.4101924570571299e+01 -2.2872610410633007e+00 5.4964095486307709e+00 0 0 0
30 30 8 0.0000000000000000e+00 -1.2555019713813699e+01 -9.0842901868748505e-01 -7.1661293716473171e+00 0 0 1
31 31 8 0.0000000000000000e+00 -1.1138512203961456e+01 -2.9868228425332606e+00 6.1984451851328366e+00 0 0 0
32 32 8 0.0000000000000000e+00 -1.2147992359291653e+01 -4.4528355499534156e-01 4.8583059329033143e+00 0 0 0
189 265 10 -8.3399999999999996e-01 -1.6724922210497535e+01 -6.0141238444950638e+00 2.5391666770053098e+00 0 0 0
190 265 9 4.1699999999999998e-01 -1.6375928603680883e+01 -5.3869058114370922e+00 3.2022219811643891e+00 0 0 0
191 265 9 4.1699999999999998e-01 -1.6724222858157290e+01 -5.4447522864488551e+00 1.7440217093839989e+00 0 0 0
353 319 9 4.1699999999999998e-01 -1.0650379947663957e+00 6.6683834337551744e+00 5.1688575616007855e+00 0 0 0
193 266 9 4.1699999999999998e-01 -1.9181711011929220e+01 -3.4042045811159776e+00 2.5839661618472856e+00 0 0 0
356 320 9 4.1699999999999998e-01 -3.3118260334405085e+00 3.3795183982292785e+00 5.3081886001080996e+00 0 0 0
195 267 10 -8.3399999999999996e-01 -1.9099205025044640e+01 -6.6060367788972032e+00 3.9174929419459339e+00 0 0 0
196 267 9 4.1699999999999998e-01 -1.8212408597219362e+01 -6.5137197114405740e+00 3.5130321881227107e+00 0 0 0
197 267 9 4.1699999999999998e-01 -1.9646936973968977e+01 -6.3770678145275381e+00 3.1462938696576885e+00 0 0 0
198 268 10 -8.3399999999999996e-01 -1.6298383035440651e+01 -4.3797863230128140e+00 4.6899745486758677e+00 0 0 0
199 268 9 4.1699999999999998e-01 -1.6109178364360822e+01 -3.9615801303402924e+00 5.5527041821351411e+00 0 0 0
200 268 9 4.1699999999999998e-01 -1.6956937719032624e+01 -3.7400751944468285e+00 4.3507870663786070e+00 0 0 0
201 269 10 -8.3399999999999996e-01 -1.5987330288212716e+01 -7.1017718251660735e+00 5.2891554226809872e+00 0 0 0
202 269 9 4.1699999999999998e-01 -1.6094252773026689e+01 -6.2435095301523154e+00 4.8378486252054964e+00 0 0 0
203 269 9 4.1699999999999998e-01 -1.5786315189894063e+01 -6.7598721612937256e+00 6.1825319626233837e+00 0 0 0
362 322 9 4.1699999999999998e-01 -6.6344163148576651e-01 -4.7222859784128914e+00 -7.3781341115249752e+00 0 0 0
398 334 9 4.1699999999999998e-01 -1.0560041888420639e+00 1.8991287706850180e+00 -3.0778135389068542e+00 0 0 0
355 320 9 4.1699999999999998e-01 -3.0295490139062928e+00 3.1028866137978430e+00 6.7650665886363459e+00 0 0 0
225 277 10 -8.3399999999999996e-01 -1.6460564784946854e+01 -1.4273091099308768e+00 1.9835695916883753e+00 0 0 0
226 277 9 4.1699999999999998e-01 -1.6502981678405575e+01 -4.7953715646996514e-01 2.2261725505134438e+00 0 0 0
227 277 9 4.1699999999999998e-01 -1.6687366112926306e+01 -1.3720289672389319e+00 1.0316321565196303e+00 0 0 0
231 279 10 -8.3399999999999996e-01 -1.8112618223037106e+01 -2.5167427414134935e+00 3.8075773791959184e+00 0 0 0
232 279 9 4.1699999999999998e-01 -1.7459909055961052e+01 -2.1827471407584564e+00 3.1478252314346920e+00 0 0 0
233 279 9 4.1699999999999998e-01 -1.8440777201225224e+01 -1.6470956743861802e+00 4.1346301126289875e+00 0 0 0
237 281 10 -8.3399999999999996e-01 -1.5347697936740314e+01 -1.1540606866526031e+00 -5.9630435643123620e+00 0 0 1
238 281 9 4.1699999999999998e-01 -1.5646004673306896e+01 -2.1935041450110407e-01 -6.0651746705600953e+00 0 0 1
239 281 9 4.1699999999999998e-01 -1.4395446690928129e+01 -1.0384056110336444e+00 -5.8596128758758201e+00 0 0 1
73 73 8 0.0000000000000000e+00 -9.2977125294451586e+00 -6.6593518945474734e+00 3.6789944927737800e-01 0 0 0
74 74 8 0.0000000000000000e+00 -9.5067574318805796e+00 -5.8469500216773813e+00 3.2694879565390518e+00 0 0 0
75 75 8 0.0000000000000000e+00 -6.9665567977012142e+00 -5.9822855077026560e+00 1.7257755008463316e+00 0 0 0
76 76 8 0.0000000000000000e+00 -4.9589031537053900e+00 -4.8339554843348687e+00 9.8874259740089829e-02 0 0 0
77 77 8 0.0000000000000000e+00 -8.5907750223708721e+00 7.2087659863237477e+00 5.2035751793680989e+00 0 -1 0
78 78 8 0.0000000000000000e+00 -8.7217303721322459e+00 -4.8997774521901674e+00 6.5068580646399905e+00 0 0 0
79 79 8 0.0000000000000000e+00 -6.3605428789970366e+00 -6.8056496443829166e+00 6.6904218065779633e+00 0 0 0
80 80 8 0.0000000000000000e+00 -6.8622253699003251e+00 -5.0605408810757702e+00 4.4205603749424824e+00 0 0 0
89 89 8 0.0000000000000000e+00 -8.9546669177424558e+00 -3.7364337979000544e+00 1.6377917867879559e+00 0 0 0
90 90 8 0.0000000000000000e+00 -7.8198388291760068e+00 -1.1347814585231839e+00 1.4539031158594107e+00 0 0 0
91 91 8 0.0000000000000000e+00 -6.1654874922012421e+00 -3.2905969685894618e+00 2.2206171892058642e+00 0 0 0
92 92 8 0.0000000000000000e+00 -3.8017572674492586e+00 -2.1098024882581128e+00 8.9175643345808353e-01 0 0 0
93 93 8 0.0000000000000000e+00 -8.8987622580841457e+00 -3.0727792710000776e+00 4.3529030979433010e+00 0 0 0
94 94 8 0.0000000000000000e+00 -8.0049971678441842e+00 -2.0835298758504308e+00 6.8673142489238774e+00 0 0 0
95 95 8 0.0000000000000000e+00 -5.9190993477923790e+00 -2.3605550231670751e+00 4.9463440736335995e+00 0 0 0
96 96 8 0.0000000000000000e+00 -5.3306195230851117e+00 -5.6376641387507787e-01 2.7728715976909042e+00 0 0 0
129 129 7 1.3300000000000001e+00 -7.1686517598865429e-01 -3.5832932065215450e+00 2.8592502752682352e+00 0 0 0
132 129 6 -6.5000000000000002e-01 -9.5403405020153476e-01 -2.7545097799724427e+00 4.0257157803231003e+00 0 0 0
396 334 10 -8.3399999999999996e-01 -3.0130452914756101e-01 1.3674772109150812e+00 -2.7641150152487053e+00 0 0 0
294 300 10 -8.3399999999999996e-01 -5.0944089399661618e-01 -6.9231794820088126e+00 1.6776845339795381e+00 0 0 0
295 300 9 4.1699999999999998e-01 -3.4943441830748934e-01 -6.1819419344383419e+00 2.2980206727625005e+00 0 0 0
296 300 9 4.1699999999999998e-01 -8.4958780154552527e-01 -6.4383347549298309e+00 9.0089015129356664e-01 0 0 0
297 301 10 -8.3399999999999996e-01 -3.8538265862790988e+00 -5.7680075321567399e+00 2.6921585758001574e+00 0 0 0
298 301 9 4.1699999999999998e-01 -3.2680723102373390e+00 -5.0271878257766476e+00 2.4455145583200486e+00 0 0 0
299 301 9 4.1699999999999998e-01 -4.0693897643274299e+00 -5.5257230650450344e+00 3.6161579386790237e+00 0 0 0
300 302 10 -8.3399999999999996e-01 -1.5587499104762397e+00 -6.5369521126634904e+00 5.0348131167744166e+00 0 0 0
301 302 9 4.1699999999999998e-01 -1.0187854388442834e+00 -5.9212347439786939e+00 5.5691639689983807e+00 0 0 0
302 302 9 4.1699999999999998e-01 -2.4073519730336255e+00 -6.0544298943777273e+00 4.9967698699023577e+00 0 0 0
303 303 10 -8.3399999999999996e-01 -3.8713786485170663e+00 -5.0583372160552402e+00 5.3064803630080846e+00 0 0 0
304 303 9 4.1699999999999998e-01 -3.7256518955740754e+00 -4.1147122262436602e+00 5.5247616910639028e+00 0 0 0
305 303 9 4.1699999999999998e-01 -3.9818601985777256e+00 -5.4583807479766620e+00 6.1945370588242836e+00 0 0 0
318 308 10 -8.3399999999999996e-01 -2.8955537817286552e+00 -2.5047724344028377e+00 5.8342896346787230e+00 0 0 0
319 308 9 4.1699999999999998e-01 -2.2427173619813363e+00 -2.5482467288430874e+00 5.0991557130411760e+00 0 0 0
320 308 9 4.1699999999999998e-01 -2.8199252394944012e+00 -1.5587491589173581e+00 6.0741894811647734e+00 0 0 0
41 41 8 0.0000000000000000e+00 -1.4320895408851618e+01 4.6000365143793298e-01 7.7845617160276936e-01 0 0 0
42 42 8 0.0000000000000000e+00 -1.4180816204119349e+01 3.1135047601972716e+00 2.0378544934442435e+00 0 0 0
43 43 8 0.0000000000000000e+00 -1.2111558407732986e+01 9.8565129795079154e-01 2.5079247971627141e+00 0 0 0
44 44 8 0.0000000000000000e+00 -1.2040382452840888e+01 2.4187279759176059e+00 1.9814477131247582e-01 0 0 0
45 45 8 0.0000000000000000e+00 -1.4615222321468355e+01 6.1528191842706359e-01 3.7016303237296446e+00 0 0 0
46 46 8 0.0000000000000000e+00 -1.4425174944082363e+01 9.4440512589204584e-01 6.5003957556953766e+00 0 0 0
47 47 8 0.0000000000000000e+00 -9.9423964898995578e+00 -1.2128265199036334e-01 6.3737592137018186e+00 0 0 0
48 48 8 0.0000000000000000e+00 -1.2416636274763643e+01 2.3937718555464729e+00 4.9823596612265710e+00 0 0 0
57 57 8 0.0000000000000000e+00 -1.4827929119478849e+01 2.7550400748522690e+00 -8.5207820400317558e-01 0 0 0
58 58 8 0.0000000000000000e+00 -1.3320696178222359e+01 6.0523326398484869e+00 1.7992659057231750e+00 0 0 0
59 59 8 0.0000000000000000e+00 -1.1548080457346986e+01 3.8577853535967264e+00 2.7773334441672111e+00 0 0 0
60 60 8 0.0000000000000000e+00 -1.0649363581223847e+01 5.7546888719241398e+00 8.5085879050910307e-01 0 0 0
61 61 8 0.0000000000000000e+00 -1.3749964061469298e+01 4.9385944624252991e+00 4.3328581457476831e+00 0 0 0
62 62 8 0.0000000000000000e+00 -1.3424711612411837e+01 6.8570568312643294e+00 6.4777349165399913e+00 0 0 0
63 63 8 0.0000000000000000e+00 -1.1396368738041925e+01 4.9528373898274651e+00 5.9041060112516357e+00 0 0 0
64 64 8 0.0000000000000000e+00 -1.1006818414772825e+01 6.5419675487394642e+00 3.5801288366638353e+00 0 0 0
228 278 10 -8.3399999999999996e-01 -1.7498831025325561e+01 1.7240694564658035e+00 -3.2372565003499727e-02 0 0 0
229 278 9 4.1699999999999998e-01 -1.7251100953993319e+01 2.6546733168713486e+00 1.2672291412770395e-01 0 0 0
230 278 9 4.1699999999999998e-01 -1.7426715621344357e+01 1.3879773132521003e+00 8.8935792731268148e-01 0 0 0