LAMMPS data file via write_data, version 16 Mar 2018, timestep = 452

297 atoms
12 atom types
125 bonds
8 bond types
121 angles
13 angle types
132 dihedrals
18 dihedral types

-9.8626932000000007e+00 9.8626932000000007e+00 xlo xhi
-7.3970199000000001e+00 7.3970199000000001e+00 ylo yhi
-7.3970199000000001e+00 7.3970199000000001e+00 zlo zhi

Masses

1 1.008
2 1.008
3 12.011
4 12.011
5 15.9994
6 15.9994
7 32.06
8 196.966
9 1.008
10 15.9994
11 35.45
12 22.9898

Pair Coeffs # lj/charmmfsw/coul/long

1 0.028 2.38761 0.028 2.38761
2 0.024 2.38761 0.024 2.38761
3 0.056 3.58141 0.01 3.38542
4 0.078 3.63487 0.01 3.38542
5 0.1 2.93997 0.1 2.93997
6 0.12 3.02906 0.12 3.02906
7 0.47 3.74177 0.47 3.74177
8 5.29 2.62904 5.29 2.62904
9 0.046 0.400014 0.046 0.400014
10 0.1521 3.15057 0.1521 3.15057
11 0.15 4.04468 0.15 4.04468
12 0.0469 2.42993 0.0469 2.42993

Bond Coeffs # harmonic

1 222.5 1.53
2 222.5 1.528
3 309 1.111
4 340 1.43
5 322 1.111
6 450 0.9572
7 540 1.448
8 250 1.575

Angle Coeffs # charmm

1 58.35 113.6 11.16 2.561
2 58 115 8 2.561
3 26.5 110.1 22.53 2.179
4 75.7 110.1 0 0
5 34.6 110.1 22.53 2.179
6 15 109 27 1.9
7 34.6 110.1 22.53 2.179
8 35.5 109 5.4 1.802
9 60 109.5 0 0
10 35.5 108.4 5.4 1.802
11 55 104.52 0 0
12 130 109.47 35 2.45
13 85 98 0 0

Dihedral Coeffs # charmmfsw

1 0.101 2 0 1
2 0.142 3 180 0
3 0.074 4 0 0
4 0.097 5 0 0
5 0.162 2 0 1
6 0.047 3 180 0
7 0.105 4 0 0
8 0.177 5 0 0
9 0.19 3 0 1
10 0 3 0 1
11 0.16 3 0 1
12 0 3 0 1
13 0 3 0 1
14 0.19 3 0 1
15 0.19 3 0 1
16 0.19 3 0 1
17 0.16 3 0 1
18 0 3 0 1

Atoms # full

1 1 8 0.0000000000000000e+00 -8.5455002817247827e+00 -6.2174046796405094e+00 -7.3418851640459799e+00 0 0 0
2 2 8 0.0000000000000000e+00 -8.5748340149007110e+00 -4.1268592962047936e+00 -5.4315479967710827e+00 0 0 0
3 3 8 0.0000000000000000e+00 -6.2844680434772702e+00 -5.9124953309559904e+00 -5.4040326285428497e+00 0 0 0
4 4 8 0.0000000000000000e+00 -5.9577792971134400e+00 -5.1852287711041916e+00 6.6410924485179752e+00 0 0 -1
5 5 8 0.0000000000000000e+00 -9.0339157018619414e+00 -4.9236154993402570e+00 -2.6596751397709886e+00 0 0 0
6 6 8 0.0000000000000000e+00 -7.6846280956175645e+00 -2.9757225080982850e+00 -1.0589858535949892e+00 0 0 0
7 7 8 0.0000000000000000e+00 -6.7110256317294388e+00 -6.9176131518875579e+00 -2.5868805118218559e+00 0 0 0
8 8 8 0.0000000000000000e+00 -6.4540450144813635e+00 -3.9239572516155832e+00 -3.4681773381621759e+00 0 0 0
17 17 8 0.0000000000000000e+00 -8.2302260189667820e+00 -3.3543012146161173e+00 6.6341034359919213e+00 0 0 -1
18 18 8 0.0000000000000000e+00 -8.2412504774795377e+00 -1.0829652412969555e+00 -6.2503975345493892e+00 0 0 0
19 19 8 0.0000000000000000e+00 -6.0468956871797319e+00 -3.1067606698022452e+00 -6.2783242031893867e+00 0 0 0
20 20 8 0.0000000000000000e+00 -5.7252099932105063e+00 -8.0663114875382899e-02 -7.1026597775119065e+00 0 0 0
21 21 8 0.0000000000000000e+00 -8.8137361306406916e+00 -2.0565731777662801e+00 -3.5459040289275690e+00 0 0 0
22 22 8 0.0000000000000000e+00 -7.3938161941879708e+00 -1.6439153109225255e-01 -1.9968263668353123e+00 0 0 0
23 23 8 0.0000000000000000e+00 -5.1115935452403649e+00 -1.9782495651348142e+00 -1.8598393966307964e+00 0 0 0
24 24 8 0.0000000000000000e+00 -6.1386934066412779e+00 -1.1746974437867761e+00 -4.3319429517992170e+00 0 0 0
65 65 8 0.0000000000000000e+00 -3.7216670565741037e+00 -6.9765262450634129e+00 6.6832662216533025e+00 0 0 -1
66 66 8 0.0000000000000000e+00 -3.7767306060446342e+00 -4.8955506851617967e+00 -6.2296729882110773e+00 0 0 0
67 67 8 0.0000000000000000e+00 -4.2307621124383105e-01 -6.5956041833700283e+00 -6.0653473587185811e+00 0 0 0
68 68 8 0.0000000000000000e+00 -1.2073035232706655e+00 -3.9204386520502021e+00 -7.0121871390657811e+00 0 0 0
69 69 8 0.0000000000000000e+00 -4.2023993636738517e+00 -5.8898821255420897e+00 -3.4053448569802991e+00 0 0 0
70 70 8 0.0000000000000000e+00 -2.8922943728979194e+00 -3.8116321465817067e+00 -1.7992809603263329e+00 0 0 0
71 71 8 0.0000000000000000e+00 -4.1243509231518094e-01 -5.5029611754108672e+00 -1.6629160461851609e+00 0 0 0
72 72 8 0.0000000000000000e+00 -1.7044643191286000e+00 -4.8391152148276992e+00 -4.2454452200262862e+00 0 0 0
81 81 8 0.0000000000000000e+00 -3.5143423497959017e+00 -2.0923595256697975e+00 -7.0940899922720337e+00 0 0 0
82 82 8 0.0000000000000000e+00 -3.6258435212449958e+00 -1.3062215681905864e-01 -5.1777224313119516e+00 0 0 0
83 83 8 0.0000000000000000e+00 -1.3579141372458376e+00 -1.8733264464623975e+00 -5.1394829009073071e+00 0 0 0
126 126 8 0.0000000000000000e+00 -4.9516689734938586e+00 5.7790856672889710e+00 5.1761740932881715e+00 0 0 0
85 85 8 0.0000000000000000e+00 -3.8919670022007140e+00 -2.9193059331898255e+00 -4.2935361174283067e+00 0 0 0
86 86 8 0.0000000000000000e+00 -2.6082567861044503e+00 -9.0918546004950151e-01 -2.7116676563331978e+00 0 0 0
87 87 8 0.0000000000000000e+00 -4.2966062277548200e-01 -2.8203773478416156e+00 -2.6713675026409338e+00 0 0 0
124 124 8 0.0000000000000000e+00 -4.8642583987266985e-01 6.5687052162970474e+00 -5.3303442259220501e-01 0 0 0
33 33 8 0.0000000000000000e+00 -7.9486271222377169e+00 1.7915459049225742e+00 7.3176988563307912e+00 0 0 -1
34 34 8 0.0000000000000000e+00 -9.3505954298890366e+00 3.0581640681230318e+00 -5.2864163570697515e+00 0 0 0
35 35 8 0.0000000000000000e+00 -6.9462898857641102e+00 1.4201054761065173e+00 -4.8626751113940587e+00 0 0 0
36 36 8 0.0000000000000000e+00 -5.4273023733711030e+00 2.8334777292245761e+00 6.4422480034715672e+00 0 0 -1
37 37 8 0.0000000000000000e+00 -8.1221790308627675e+00 2.5414683198059453e+00 -2.5403326685521428e+00 0 0 0
38 38 8 0.0000000000000000e+00 -9.4859001719596563e+00 4.1483284840701042e+00 -6.7887077776406268e-01 0 0 0
39 39 8 0.0000000000000000e+00 -4.9072609763914175e+00 9.1823424185852809e-01 -2.8328223103771260e+00 0 0 0
40 40 8 0.0000000000000000e+00 -5.6152079315210486e+00 3.5981096928455245e+00 -3.4629738964780978e+00 0 0 0
49 49 8 0.0000000000000000e+00 -8.9038947411768401e+00 5.7643563499867172e+00 -6.5070711899345550e+00 0 0 0
50 50 8 0.0000000000000000e+00 -8.7964713307578748e+00 -6.9627044944811214e+00 -4.5775870135112839e+00 0 1 0
51 51 8 0.0000000000000000e+00 -6.7295441849758468e+00 4.0430266585488903e+00 -6.1198190494185125e+00 0 0 0
52 52 8 0.0000000000000000e+00 -6.3103808880076073e+00 6.8198283582321810e+00 -7.2935601905466951e+00 0 0 0
53 53 8 0.0000000000000000e+00 -8.1276338024808137e+00 5.1647837520172848e+00 -3.8100411961829006e+00 0 0 0
54 54 8 0.0000000000000000e+00 -9.2717624073352578e+00 6.8987882510906031e+00 -1.7908774312647715e+00 0 0 0
55 55 8 0.0000000000000000e+00 -6.7979391661298081e+00 5.0003268407362489e+00 -1.3806746853925667e+00 0 0 0
56 56 8 0.0000000000000000e+00 -5.6220499240439699e+00 6.2286208335921582e+00 -4.6572519350540338e+00 0 0 0
97 97 8 0.0000000000000000e+00 -3.1965199879085096e+00 9.4161527776637044e-01 6.8876153754864120e+00 0 0 -1
98 98 8 0.0000000000000000e+00 -4.4098071659062175e+00 2.4439174080276884e+00 -5.7517741312870658e+00 0 0 0
99 99 8 0.0000000000000000e+00 -9.9841442164062466e-01 8.5625057472369548e-01 -5.9037288944762381e+00 0 0 0
100 100 8 0.0000000000000000e+00 -1.8273755123210882e+00 3.4154606769714175e+00 -6.5343366147369846e+00 0 0 0
101 101 8 0.0000000000000000e+00 -2.4369703198929251e+00 1.9916462597469695e+00 -3.6939433691383283e+00 0 0 0
102 102 8 0.0000000000000000e+00 -3.7195905537858782e+00 3.1649924028782297e+00 -1.3339443163222433e+00 0 0 0
103 103 8 0.0000000000000000e+00 -1.3516728736370762e+00 1.1996703744837176e+00 -1.2196173529823642e+00 0 0 0
122 122 8 0.0000000000000000e+00 -4.4608189401359812e+00 6.5480628444179674e+00 2.4841805333407843e+00 0 0 0
113 113 8 0.0000000000000000e+00 -4.1697874432276425e+00 5.0584208260469907e+00 -6.9548351718473960e+00 0 0 0
114 114 8 0.0000000000000000e+00 -3.0893557195107664e+00 7.2625332264935540e+00 -5.4664806435070066e+00 0 0 0
115 115 8 0.0000000000000000e+00 -5.3049158551368625e-01 5.4896192646926378e+00 -5.0036221415732562e+00 0 0 0
116 116 8 0.0000000000000000e+00 -1.5601506550171194e+00 6.0517109303774923e+00 7.1450654283923676e+00 0 0 -1
117 117 8 0.0000000000000000e+00 -3.1500281723647370e+00 4.6514689020148552e+00 -4.3379479382395951e+00 0 0 0
118 118 8 0.0000000000000000e+00 -4.2728219714572333e+00 6.0827676832029924e+00 -2.2402796292863663e+00 0 0 0
119 119 8 0.0000000000000000e+00 -1.3073798064171862e+00 4.3678536751468018e+00 -2.2004955729567048e+00 0 0 0
120 120 8 0.0000000000000000e+00 -1.7201027552730419e+00 7.1692576471003235e+00 -3.0681919408643208e+00 0 0 0
9 9 8 0.0000000000000000e+00 -7.9451764586352853e+00 -5.8288234907977197e+00 -1.8672023328264051e-01 0 0 0
10 10 8 0.0000000000000000e+00 -9.1334631703307618e+00 -4.7282943513336955e+00 2.1779453912234668e+00 0 0 0
11 11 8 0.0000000000000000e+00 -6.7935278015483069e+00 -6.5152318858441598e+00 2.3179814543264721e+00 0 0 0
12 12 8 0.0000000000000000e+00 -5.4041365340732073e+00 -4.8139348906006303e+00 -9.8964185087570256e-01 0 0 0
13 13 8 0.0000000000000000e+00 -7.3040417467447405e+00 -7.1417814250534768e+00 5.0216257572272553e+00 0 0 0
14 14 8 0.0000000000000000e+00 -9.6129644901630673e+00 -5.3406780473194528e+00 4.9643721831939018e+00 0 0 0
15 15 8 0.0000000000000000e+00 -4.7204546354090207e+00 -6.0987651811459207e+00 4.2385754527020696e+00 0 0 0
16 16 8 0.0000000000000000e+00 -7.0336319994355119e+00 -4.3213095531000318e+00 4.1697332340262188e+00 0 0 0
25 25 8 0.0000000000000000e+00 -8.8657716551515779e+00 -1.9487922278439942e+00 1.3187828504905172e+00 0 0 0
26 26 8 0.0000000000000000e+00 -9.0064245316561458e+00 2.9269796590179514e-01 3.1434655926452044e+00 0 0 0
27 27 8 0.0000000000000000e+00 -6.5457018709109143e+00 -3.7518200548508727e+00 1.4233505535782096e+00 0 0 0
28 28 8 0.0000000000000000e+00 -6.3135377064857350e+00 -9.6443474631512294e-01 5.0645726384840539e-01 0 0 0
29 29 8 0.0000000000000000e+00 -9.2872682892599592e+00 -2.5065190486012052e+00 4.1008643001351910e+00 0 0 0
30 30 8 0.0000000000000000e+00 -7.9317801821219183e+00 -5.4684948015801138e-01 5.7165820683936976e+00 0 0 0
31 31 8 0.0000000000000000e+00 -5.6618769538434410e+00 -2.3383754667983272e+00 5.8044398344629169e+00 0 0 0
32 32 8 0.0000000000000000e+00 -6.7281895745423705e+00 -1.5311832934556495e+00 3.2713847175373592e+00 0 0 0
73 73 8 0.0000000000000000e+00 -3.0168056413163558e+00 -6.5286393497802484e+00 -8.2738690773565293e-01 0 0 0
74 74 8 0.0000000000000000e+00 -4.2299119808015719e+00 -5.4888797200293764e+00 1.5160994029167894e+00 0 0 0
75 75 8 0.0000000000000000e+00 -1.8917023580110628e+00 -7.2170996851852403e+00 1.7228240638087373e+00 0 0 0
76 76 8 0.0000000000000000e+00 -1.6506904103621487e+00 -4.4638729587790831e+00 6.9477664809302697e-01 0 0 0
77 77 8 0.0000000000000000e+00 -2.1352271063854267e+00 -5.0548250276069027e+00 3.4520736793851192e+00 0 0 0
78 78 8 0.0000000000000000e+00 -3.3630943166822926e+00 -4.1746667768843579e+00 5.8444571818222499e+00 0 0 0
79 79 8 0.0000000000000000e+00 -1.0677169075271280e+00 -6.0496875031929438e+00 5.9373535089176057e+00 0 0 0
84 84 8 0.0000000000000000e+00 -9.7775853191829531e-01 -1.0422517268919524e+00 6.8693606848685267e+00 0 0 -1
89 89 8 0.0000000000000000e+00 -4.0091824492724895e+00 -2.7416947495544814e+00 6.1156447882965670e-01 0 0 0
90 90 8 0.0000000000000000e+00 -4.1766172622422015e+00 -5.2273855663510571e-01 2.4344494859104695e+00 0 0 0
91 91 8 0.0000000000000000e+00 -1.9468239832703629e+00 -2.2462698419626173e+00 2.5371746095223631e+00 0 0 0
92 92 8 0.0000000000000000e+00 -1.4746604027711594e+00 -1.6976027272429175e+00 -2.4539355781118039e-01 0 0 0
93 93 8 0.0000000000000000e+00 -4.4660948518343213e+00 -3.3058111066232958e+00 3.3744915927034627e+00 0 0 0
94 94 8 0.0000000000000000e+00 -3.1193890386472853e+00 -1.3000167444336683e+00 4.9858095339364379e+00 0 0 0
95 95 8 0.0000000000000000e+00 -7.8759082024299576e-01 -3.1420801334597166e+00 5.0146468247778442e+00 0 0 0
96 96 8 0.0000000000000000e+00 -5.2761747919686741e-01 -2.8741225894531613e-01 4.1149488302723416e+00 0 0 0
41 41 8 0.0000000000000000e+00 -8.6508879182678449e+00 8.6575168443384087e-01 3.3578559803325797e-01 0 0 0
42 42 8 0.0000000000000000e+00 -8.0835992287631608e+00 3.3483539288752175e+00 1.6728977673589698e+00 0 0 0
43 43 8 0.0000000000000000e+00 -6.3848939081131970e+00 1.2106073756998186e+00 2.2712095130388259e+00 0 0 0
44 44 8 0.0000000000000000e+00 -6.1668105058807070e+00 2.0404355122273095e+00 -4.6999265341423691e-01 0 0 0
45 45 8 0.0000000000000000e+00 -7.6859203514339702e+00 2.3686539674331359e+00 4.5411417716875668e+00 0 0 0
128 128 8 0.0000000000000000e+00 -2.3391015946976697e+00 6.7243313043267774e+00 4.4118807523377130e+00 0 0 0
47 47 8 0.0000000000000000e+00 -5.4096621160034095e+00 4.8083889938319141e-01 4.8780910599491136e+00 0 0 0
48 48 8 0.0000000000000000e+00 -5.1444874711555206e+00 3.3429246220523172e+00 3.6918557651974679e+00 0 0 0
57 57 8 0.0000000000000000e+00 -8.1226729767367516e+00 6.2043366597731469e+00 7.7315086581849568e-01 0 0 0
127 127 8 0.0000000000000000e+00 -2.3475349721059260e-01 4.7341666288717681e+00 5.0083821815090195e+00 0 0 0
59 59 8 0.0000000000000000e+00 -5.5352609154034038e+00 4.4180042420561687e+00 1.0198318881966941e+00 0 0 0
60 60 8 0.0000000000000000e+00 -5.5657789852300450e+00 7.2291281075139597e+00 -2.2859498437952770e-02 0 0 0
61 61 8 0.0000000000000000e+00 -9.6239011025400689e+00 4.4462155564936587e+00 3.8427739057097825e+00 0 0 0
125 125 8 0.0000000000000000e+00 -2.6538453505492949e+00 4.3757718410371007e+00 2.8537266683437523e+00 0 0 0
63 63 8 0.0000000000000000e+00 -7.5169800896136234e+00 4.7945190020893413e+00 5.9593898690292102e+00 0 0 0
64 64 8 0.0000000000000000e+00 -7.0139543477930157e+00 5.4758777389885953e+00 3.2477531100026473e+00 0 0 0
105 105 8 0.0000000000000000e+00 -3.8285678419853348e+00 8.2465799451128127e-02 -3.4464512951723913e-01 0 0 0
106 106 8 0.0000000000000000e+00 -3.8257550969697469e+00 2.2402604112043232e+00 1.4033438850197764e+00 0 0 0
107 107 8 0.0000000000000000e+00 -1.6015734185909207e+00 5.0127432080769085e-01 1.5659209278767685e+00 0 0 0
108 108 8 0.0000000000000000e+00 -1.2854338883663510e+00 3.3563563245876753e+00 5.4042925999482017e-01 0 0 0
109 109 8 0.0000000000000000e+00 -2.8956559586310662e+00 1.4801777210640161e+00 4.0399738806725267e+00 0 0 0
110 110 8 0.0000000000000000e+00 -2.8760192634791770e+00 3.8283943941644165e+00 5.6274986242976679e+00 0 0 0
111 111 8 0.0000000000000000e+00 -6.6553518304074244e-01 1.9119493129133367e+00 6.0432982290242778e+00 0 0 0
112 112 8 0.0000000000000000e+00 -4.3020504054995623e-01 2.5531780797576400e+00 3.1983049293558166e+00 0 0 0
121 121 8 0.0000000000000000e+00 -3.0558999645996319e+00 5.5097995418658927e+00 1.9608245905684160e-01 0 0 0
123 123 8 0.0000000000000000e+00 -7.8978826499100610e-02 5.3903141314906113e+00 2.1780669989392027e+00 0 0 0
58 58 8 0.0000000000000000e+00 -9.4011779608841479e+00 7.2776295386744891e+00 3.0429246360038604e+00 0 0 0
129 129 7 1.3300000000000001e+00 2.1330326057430060e+00 -3.8593305671074920e+00 -4.6073157298220089e+00 0 0 0
130 129 5 -2.8000000000000003e-01 2.3523336756369151e+00 -2.8670876053136327e+00 -3.4225585662065163e+00 0 0 0
131 129 6 -6.5000000000000002e-01 1.5118253828688701e+00 -3.0432415125721413e+00 -5.6400799946483664e+00 0 0 0
132 129 6 -6.5000000000000002e-01 1.2968767959233458e+00 -4.9398437267360888e+00 -4.1319123887518812e+00 0 0 0
133 129 6 -6.5000000000000002e-01 3.4663594035871874e+00 -4.3073010252233939e+00 -4.9966166673081531e+00 0 0 0
134 129 3 -2.8000000000000003e-01 2.8599030668368135e+00 -3.4506649399744198e+00 -2.2254654983426203e+00 0 0 0
135 129 1 8.9999999999999997e-02 3.8527579895177428e+00 -3.9266808570636207e+00 -2.4081721876856088e+00 0 0 0
136 129 1 8.9999999999999997e-02 2.1597361282415766e+00 -4.2231980897924517e+00 -1.8208961541060442e+00 0 0 0
137 129 3 -1.7999999999999999e-01 3.0343256580020093e+00 -2.3554538310699638e+00 -1.1499353731216118e+00 0 0 0
138 129 1 8.9999999999999997e-02 3.5656366232709233e+00 -1.4891217537510253e+00 -1.6005369451468363e+00 0 0 0
139 129 1 8.9999999999999997e-02 3.6590036697095214e+00 -2.7535435271625617e+00 -3.2072612539373402e-01 0 0 0
140 129 3 -1.7999999999999999e-01 1.6960753077623025e+00 -1.8895808280420947e+00 -5.5688159024278017e-01 0 0 0
141 129 1 8.9999999999999997e-02 1.1706838612707078e+00 -2.7712061581067569e+00 -1.2661676121242271e-01 0 0 0
142 129 1 8.9999999999999997e-02 1.0805988596941432e+00 -1.4882510744551187e+00 -1.3867731843817046e+00 0 0 0
219 275 10 -8.3399999999999996e-01 5.3554679348382201e+00 -6.3358236774238854e+00 -5.1204518087890802e+00 0 0 0
220 275 9 4.1699999999999998e-01 5.9711952543209526e+00 -6.1814538817317377e+00 -4.3842211705773497e+00 0 0 0
221 275 9 4.1699999999999998e-01 4.7009451534690809e+00 -5.6199585588591114e+00 -4.9762291243517938e+00 0 0 0
222 276 10 -8.3399999999999996e-01 8.1547063480087125e+00 -4.5710793588912138e+00 -5.1075098699729224e+00 0 0 0
223 276 9 4.1699999999999998e-01 8.0619952876038621e+00 -5.0737573299320378e+00 -5.9366654130576295e+00 0 0 0
224 276 9 4.1699999999999998e-01 8.1909992486146059e+00 -3.6483163095515745e+00 -5.4241864916107554e+00 0 0 0
225 277 10 -8.3399999999999996e-01 7.7372064106762304e+00 -6.4573071517146641e+00 -3.2718747301108091e+00 0 0 0
226 277 9 4.1699999999999998e-01 8.0002897768947303e+00 -5.6802924696224917e+00 -3.8216466249300298e+00 0 0 0
227 277 9 4.1699999999999998e-01 8.1223468039796654e+00 -6.1899449387203784e+00 -2.4023843756518146e+00 0 0 0
228 278 10 -8.3399999999999996e-01 8.3834773665738886e+00 -5.6459871771708965e+00 -7.5764495591621994e-01 0 0 0
229 278 9 4.1699999999999998e-01 8.3959384587236929e+00 -5.8743221297640256e+00 1.9044937247066487e-01 0 0 0
230 278 9 4.1699999999999998e-01 7.8619143365701403e+00 -4.8195606833960269e+00 -7.3246410324646272e-01 0 0 0
231 279 10 -8.3399999999999996e-01 8.8739150367532549e+00 -1.8476596745638763e+00 -1.0101458440861493e+00 0 0 0
232 279 9 4.1699999999999998e-01 8.8703555916797789e+00 -1.6165411456482899e+00 -6.8926743217730971e-02 0 0 0
233 279 9 4.1699999999999998e-01 8.1726198147647082e+00 -2.5264386038977080e+00 -1.0306819339404183e+00 0 0 0
252 286 10 -8.3399999999999996e-01 8.6659370744765649e+00 -1.9734181213063617e+00 -5.9223060085711152e+00 0 0 0
253 286 9 4.1699999999999998e-01 8.2593102990244525e+00 -1.1020374881456803e+00 -6.0433049672452315e+00 0 0 0
254 286 9 4.1699999999999998e-01 9.2984870417722902e+00 -1.8076583733682223e+00 -5.2121605274820197e+00 0 0 0
258 288 10 -8.3399999999999996e-01 8.3615569866756232e+00 8.1555715133717521e-01 -1.1175336653217551e+00 0 0 0
259 288 9 4.1699999999999998e-01 8.1880202572506775e+00 5.8894011408403824e-01 -1.8045537004198711e-01 0 0 0
260 288 9 4.1699999999999998e-01 8.6354836022385992e+00 -7.5424023350353808e-02 -1.4204237155830053e+00 0 0 0
146 129 3 -1.7999999999999999e-01 2.0039762688257357e+00 5.9936381514390502e-01 -1.7786195892133427e-01 0 0 0
147 129 1 8.9999999999999997e-02 1.3124786851129906e+00 6.9652131466519707e-01 -1.0459908837539400e+00 0 0 0
148 129 1 8.9999999999999997e-02 3.0419001207258112e+00 6.2917918909325610e-01 -5.7848752405900572e-01 0 0 0
151 129 1 8.9999999999999997e-02 1.9624837142504463e+00 2.7312137077698453e+00 1.5083637059547272e-01 0 0 0
186 264 10 -8.3399999999999996e-01 2.8749920868031795e+00 1.7788556121578440e+00 -5.7027382087122369e+00 0 0 0
187 264 9 4.1699999999999998e-01 3.1756698126754599e+00 2.3817313866567891e+00 -4.9975934958608406e+00 0 0 0
188 264 9 4.1699999999999998e-01 2.3203004456353420e+00 2.4003442823137253e+00 -6.2258642662664716e+00 0 0 0
198 268 10 -8.3399999999999996e-01 1.3711132871751992e+00 3.7525833518855767e+00 -6.9422521878984744e+00 0 0 0
199 268 9 4.1699999999999998e-01 1.7237358368837044e+00 4.6145418084461385e+00 -6.6314501001883386e+00 0 0 0
200 268 9 4.1699999999999998e-01 5.1977840961548238e-01 4.0080232957760673e+00 -7.3031856147434988e+00 0 0 0
201 269 10 -8.3399999999999996e-01 4.9695648358340128e+00 5.7159289956007084e+00 -5.7877363113967570e+00 0 0 0
202 269 9 4.1699999999999998e-01 5.2049149270081916e+00 6.6331210447349171e+00 -5.5433768369526542e+00 0 0 0
203 269 9 4.1699999999999998e-01 4.0466987084548629e+00 5.8510807509064184e+00 -6.0861461138131681e+00 0 0 0
204 270 10 -8.3399999999999996e-01 4.0285165251906037e+00 3.8520973619178993e+00 -3.9705069547374192e+00 0 0 0
205 270 9 4.1699999999999998e-01 4.3204380241548641e+00 4.5031753585511609e+00 -4.6407668594753391e+00 0 0 0
206 270 9 4.1699999999999998e-01 3.8145751538777550e+00 4.4590452604761008e+00 -3.2326458223426462e+00 0 0 0
207 271 10 -8.3399999999999996e-01 1.5468408637810052e+00 7.2993330130801795e+00 -3.4987625854388629e+00 0 0 0
208 271 9 4.1699999999999998e-01 1.4842962069389327e+00 -6.5374401893547178e+00 -3.7369382433697194e+00 0 1 0
209 271 9 4.1699999999999998e-01 7.6470208074639601e-01 7.2091414718526723e+00 -2.9446495650662339e+00 0 0 0
210 272 10 -8.3399999999999996e-01 3.6903247640058794e+00 6.0118757635054942e+00 -2.1507466751998958e+00 0 0 0
211 272 9 4.1699999999999998e-01 3.3330510756079588e+00 6.0921679025341939e+00 -1.2374674706668303e+00 0 0 0
212 272 9 4.1699999999999998e-01 3.0091864647728856e+00 6.5146296923131626e+00 -2.6417119183250364e+00 0 0 0
255 287 10 -8.3399999999999996e-01 8.2434671321120288e+00 1.2948167398079693e+00 -6.6975998223259472e+00 0 0 0
256 287 9 4.1699999999999998e-01 9.1437213450549049e+00 1.6331984030902156e+00 -6.7256518445468751e+00 0 0 0
257 287 9 4.1699999999999998e-01 7.7478852246183196e+00 2.1103559697911298e+00 -6.4777180439099986e+00 0 0 0
261 289 10 -8.3399999999999996e-01 6.4162425450454332e+00 2.5388130621765641e+00 -3.6505114204408287e+00 0 0 0
262 289 9 4.1699999999999998e-01 6.7505548035600587e+00 2.9621940823805128e+00 -4.4684074603901784e+00 0 0 0
263 289 9 4.1699999999999998e-01 5.4849675871651744e+00 2.8482281535532423e+00 -3.6699513837022621e+00 0 0 0
264 290 12 1.0000000000000000e+00 7.8116467723179985e+00 2.8280505666910427e+00 -1.8905344650619564e+00 0 0 0
280 296 10 -8.3399999999999996e-01 7.1816553091576099e+00 3.8962483750475667e+00 -5.9430407451884584e+00 0 0 0
281 296 9 4.1699999999999998e-01 7.7410325719867616e+00 4.6681294959670829e+00 -5.7199232117194478e+00 0 0 0
282 296 9 4.1699999999999998e-01 6.3468983091544686e+00 4.3775047549129145e+00 -6.1191932120992902e+00 0 0 0
283 297 10 -8.3399999999999996e-01 8.2202153293607108e+00 6.3824099322667038e+00 -5.1866258934733889e+00 0 0 0
284 297 9 4.1699999999999998e-01 8.1268353058537102e+00 6.9277838056336902e+00 -5.9937987808585520e+00 0 0 0
285 297 9 4.1699999999999998e-01 8.1128297957378113e+00 7.0784116166867648e+00 -4.5057290035526760e+00 0 0 0
286 298 10 -8.3399999999999996e-01 8.4406970685831393e+00 4.6938883952934640e+00 -3.0064875766424675e+00 0 0 0
287 298 9 4.1699999999999998e-01 8.6288009355263888e+00 5.2062596686568758e+00 -3.8159991059852429e+00 0 0 0
288 298 9 4.1699999999999998e-01 7.8636133527696677e+00 5.3324385101451668e+00 -2.5336066776200941e+00 0 0 0
289 299 10 -8.3399999999999996e-01 6.5890801763926969e+00 6.3123032418832974e+00 -1.7911222262540372e+00 0 0 0
290 299 9 4.1699999999999998e-01 6.7844957785585871e+00 7.1236554045831850e+00 -2.3008090954089448e+00 0 0 0
291 299 9 4.1699999999999998e-01 5.6159325716036292e+00 6.2498578912437504e+00 -1.8683275131067203e+00 0 0 0
292 300 10 -8.3399999999999996e-01 7.3671798834996087e+00 3.5875242882245879e+00 1.9064845995799778e-01 0 0 0
293 300 9 4.1699999999999998e-01 7.7108120596472327e+00 4.4914684465557668e+00 3.9219769429400020e-01 0 0 0
294 300 9 4.1699999999999998e-01 6.8715583086939480e+00 3.4090587011269671e+00 9.9639123804672425e-01 0 0 0
295 301 10 -8.3399999999999996e-01 8.1135305309637129e+00 6.1429928426046478e+00 7.0284907017101550e-01 0 0 0
296 301 9 4.1699999999999998e-01 8.1306270907379776e+00 6.9546593594539248e+00 1.2446182693406711e+00 0 0 0
297 301 9 4.1699999999999998e-01 7.7035805925294332e+00 6.4645116550886259e+00 -1.1915427626941547e-01 0 0 0
143 129 3 -1.7999999999999999e-01 1.7623148892016973e+00 -7.6560911777597418e-01 4.8695463675835854e-01 0 0 0
144 129 1 8.9999999999999997e-02 2.5396710653008303e+00 -9.8738023471236724e-01 1.2481999684324860e+00 0 0 0
145 129 1 8.9999999999999997e-02 7.7823022962238275e-01 -7.2288200360121047e-01 1.0089981563946220e+00 0 0 0
171 259 10 -8.3399999999999996e-01 1.1388107913047574e+00 -6.5904627571218235e+00 1.9066129927483064e+00 0 0 0
172 259 9 4.1699999999999998e-01 3.5807128616819489e-01 -6.0468324564805860e+00 1.7789736061580510e+00 0 0 0
173 259 9 4.1699999999999998e-01 1.3929277925719590e+00 -6.3387318229395149e+00 2.8234683414212078e+00 0 0 0
174 260 10 -8.3399999999999996e-01 1.6943316003710760e+00 -5.8327615554214987e+00 4.4852203486646953e+00 0 0 0
175 260 9 4.1699999999999998e-01 2.2637372779551583e+00 -6.3863358989305974e+00 5.0327307398133847e+00 0 0 0
176 260 9 4.1699999999999998e-01 1.5277203612875621e+00 -5.0893867528491841e+00 5.0947890723808618e+00 0 0 0
177 261 10 -8.3399999999999996e-01 4.6170961899504954e+00 -2.7068639899676286e+00 4.2537035761447717e+00 0 0 0
178 261 9 4.1699999999999998e-01 4.8362662827562204e+00 -3.4083941861768805e+00 4.8954936600313115e+00 0 0 0
179 261 9 4.1699999999999998e-01 3.7712664064815207e+00 -2.3650635487807632e+00 4.6090941441740325e+00 0 0 0
180 262 10 -8.3399999999999996e-01 2.6595791464540626e+00 -6.2641229697492689e+00 -7.2645366850519304e+00 0 0 1
181 262 9 4.1699999999999998e-01 3.3165444134876019e+00 -5.7978741771648492e+00 -6.7311346215270369e+00 0 0 1
182 262 9 4.1699999999999998e-01 2.1620508383421826e+00 -5.5011381825934036e+00 7.1672690179800025e+00 0 0 0
183 263 10 -8.3399999999999996e-01 1.6322948142599243e+00 -3.9592568775124137e+00 6.5909816855279448e+00 0 0 0
184 263 9 4.1699999999999998e-01 1.8180283708918317e+00 -3.1347846146627845e+00 6.0963123124129686e+00 0 0 0
185 263 9 4.1699999999999998e-01 1.4175986105668739e+00 -3.5864926010432177e+00 -7.3207049588123736e+00 0 0 1
189 265 10 -8.3399999999999996e-01 2.1865526961926522e+00 -1.5786513751641091e+00 5.3581108764165988e+00 0 0 0
190 265 9 4.1699999999999998e-01 2.1721555703999105e+00 -1.1510871502204274e+00 6.2491151746252296e+00 0 0 0
191 265 9 4.1699999999999998e-01 1.5980643003138260e+00 -9.9832246798962021e-01 4.8645027702401196e+00 0 0 0
192 266 10 -8.3399999999999996e-01 5.0589925858221063e+00 -2.9118674250361845e+00 -6.6604895555103436e+00 0 0 1
193 266 9 4.1699999999999998e-01 4.9650030057786090e+00 -1.9618002662201397e+00 -6.4574537296255050e+00 0 0 1
194 266 9 4.1699999999999998e-01 4.4897827215729293e+00 -3.3243221568244428e+00 -5.9806147932810543e+00 0 0 1
234 280 10 -8.3399999999999996e-01 7.7767735406048528e+00 -6.1105498419860682e+00 1.8823395066421322e+00 0 0 0
235 280 9 4.1699999999999998e-01 8.0931758216330785e+00 -5.4224112089419600e+00 2.5007387981112976e+00 0 0 0
236 280 9 4.1699999999999998e-01 6.8225918916323396e+00 -5.9530938723532580e+00 1.9238300181478110e+00 0 0 0
237 281 10 -8.3399999999999996e-01 6.6762718450113026e+00 -3.4893973301842016e+00 -5.9712728523662073e-01 0 0 0
238 281 9 4.1699999999999998e-01 6.2952990232624018e+00 -3.6002954086772152e+00 3.0555102910992049e-01 0 0 0
239 281 9 4.1699999999999998e-01 5.8759258134255044e+00 -3.3251183467805254e+00 -1.1098297481978421e+00 0 0 0
240 282 10 -8.3399999999999996e-01 5.6793149697753673e+00 -3.8937368280061384e+00 1.9039801909607912e+00 0 0 0
241 282 9 4.1699999999999998e-01 6.4354955917556325e+00 -3.9011824769294301e+00 2.5238743342292218e+00 0 0 0
242 282 9 4.1699999999999998e-01 4.9836488662523575e+00 -3.5520325230899887e+00 2.4946093711921669e+00 0 0 0
243 283 10 -8.3399999999999996e-01 7.8722399280309130e+00 -3.8230432683016504e+00 3.5196425776972542e+00 0 0 0
244 283 9 4.1699999999999998e-01 8.2661704601446093e+00 -3.8849097701863964e+00 4.4083929269264326e+00 0 0 0
245 283 9 4.1699999999999998e-01 7.7237969565785676e+00 -2.8557751965588727e+00 3.4884904386212248e+00 0 0 0
246 284 10 -8.3399999999999996e-01 7.3753053945134210e+00 -6.4657970551827599e+00 -7.0264167890634672e+00 0 0 1
247 284 9 4.1699999999999998e-01 7.0185201888982034e+00 -6.1174241341415492e+00 6.9328303656439800e+00 0 0 0
248 284 9 4.1699999999999998e-01 6.5664206149462370e+00 -6.4585400096075150e+00 -6.4748285408298782e+00 0 0 1
249 285 10 -8.3399999999999996e-01 5.9687956631182733e+00 -4.4890035654482823e+00 6.1641517922615821e+00 0 0 0
250 285 9 4.1699999999999998e-01 6.8305047225219999e+00 -4.0345046799829838e+00 6.1079170361905621e+00 0 0 0
251 285 9 4.1699999999999998e-01 5.5650592912950589e+00 -3.9858623714327845e+00 6.9078488630214059e+00 0 0 0
265 291 10 -8.3399999999999996e-01 8.2327450047584581e+00 -3.1437373803114177e-01 1.4389339788968003e+00 0 0 0
266 291 9 4.1699999999999998e-01 8.9268588572793526e+00 5.9054331955452621e-02 1.9921329693008136e+00 0 0 0
267 291 9 4.1699999999999998e-01 7.6262818134720760e+00 -6.6619968362504101e-01 2.1245792930515566e+00 0 0 0
268 292 10 -8.3399999999999996e-01 6.9550568656309357e+00 -1.2426704348356443e+00 3.7445704376881093e+00 0 0 0
269 292 9 4.1699999999999998e-01 7.0340807589998340e+00 -8.3907803743479459e-01 4.6348886901008166e+00 0 0 0
270 292 9 4.1699999999999998e-01 6.0604031926041948e+00 -1.6404476054461408e+00 3.8248067123826264e+00 0 0 0
274 294 10 -8.3399999999999996e-01 8.2801700626144203e+00 -3.0062703757955229e+00 6.2594292822890685e+00 0 0 0
275 294 9 4.1699999999999998e-01 7.8468780302449659e+00 -2.1286582285530491e+00 6.2321761029479390e+00 0 0 0
276 294 9 4.1699999999999998e-01 8.7289785558720965e+00 -2.9257324464397869e+00 7.1186894687726907e+00 0 0 0
149 129 3 -1.7999999999999999e-01 1.7693269626989425e+00 1.8077016714632872e+00 7.4123500713669521e-01 0 0 0
150 129 1 8.9999999999999997e-02 7.0146434325627338e-01 1.8180551320112310e+00 1.0381185614438853e+00 0 0 0
152 129 3 -1.7999999999999999e-01 2.6517516579360167e+00 1.8165046497283448e+00 1.9999802524991452e+00 0 0 0
153 129 1 8.9999999999999997e-02 3.6598955833164100e+00 1.4306720522513903e+00 1.7266627607906146e+00 0 0 0