LAMMPS data file via write_data, version 16 Mar 2018, timestep = 2500

297 atoms
12 atom types
125 bonds
8 bond types
121 angles
13 angle types
132 dihedrals
18 dihedral types

-9.8626932000000007e+00 9.8626932000000007e+00 xlo xhi
-7.3970199000000001e+00 7.3970199000000001e+00 ylo yhi
-7.3970199000000001e+00 7.3970199000000001e+00 zlo zhi

Masses

1 1.008
2 1.008
3 12.011
4 12.011
5 15.9994
6 15.9994
7 32.06
8 196.966
9 1.008
10 15.9994
11 35.45
12 22.9898

Pair Coeffs # lj/charmmfsw/coul/long

1 0.028 2.38761 0.028 2.38761
2 0.024 2.38761 0.024 2.38761
3 0.056 3.58141 0.01 3.38542
4 0.078 3.63487 0.01 3.38542
5 0.1 2.93997 0.1 2.93997
6 0.12 3.02906 0.12 3.02906
7 0.47 3.74177 0.47 3.74177
8 5.29 2.62904 5.29 2.62904
9 0.046 0.400014 0.046 0.400014
10 0.1521 3.15057 0.1521 3.15057
11 0.15 4.04468 0.15 4.04468
12 0.0469 2.42993 0.0469 2.42993

Bond Coeffs # harmonic

1 222.5 1.53
2 222.5 1.528
3 309 1.111
4 340 1.43
5 322 1.111
6 450 0.9572
7 540 1.448
8 250 1.575

Angle Coeffs # charmm

1 58.35 113.6 11.16 2.561
2 58 115 8 2.561
3 26.5 110.1 22.53 2.179
4 75.7 110.1 0 0
5 34.6 110.1 22.53 2.179
6 15 109 27 1.9
7 34.6 110.1 22.53 2.179
8 35.5 109 5.4 1.802
9 60 109.5 0 0
10 35.5 108.4 5.4 1.802
11 55 104.52 0 0
12 130 109.47 35 2.45
13 85 98 0 0

Dihedral Coeffs # charmmfsw

1 0.101 2 0 1
2 0.142 3 180 0
3 0.074 4 0 0
4 0.097 5 0 0
5 0.162 2 0 1
6 0.047 3 180 0
7 0.105 4 0 0
8 0.177 5 0 0
9 0.19 3 0 1
10 0 3 0 1
11 0.16 3 0 1
12 0 3 0 1
13 0 3 0 1
14 0.19 3 0 1
15 0.19 3 0 1
16 0.19 3 0 1
17 0.16 3 0 1
18 0 3 0 1

Atoms # full

2 2 8 0.0000000000000000e+00 -8.9081273163228740e+00 -4.3372468456297106e+00 -6.0036150634167429e+00 0 0 0
3 3 8 0.0000000000000000e+00 -6.6015995033343673e+00 -6.0020310225835187e+00 -5.4043087534538321e+00 0 0 0
5 5 8 0.0000000000000000e+00 -8.2797206015068010e+00 -5.0102514107396043e+00 -3.1765314849005404e+00 0 0 0
6 6 8 0.0000000000000000e+00 -7.4877293924248569e+00 -2.9317289998974290e+00 -1.5437676259589894e+00 0 0 0
7 7 8 0.0000000000000000e+00 -5.8599430014914198e+00 -6.6663373851793448e+00 -2.6784618668355189e+00 0 0 0
8 8 8 0.0000000000000000e+00 -5.7714194483776753e+00 -3.8311807106669922e+00 -3.7701521708762264e+00 0 0 0
18 18 8 0.0000000000000000e+00 -8.4459202005087057e+00 -1.1574386496406011e+00 -6.9321608908078174e+00 0 0 0
19 19 8 0.0000000000000000e+00 -6.4572317854773420e+00 -2.9865852916520415e+00 -6.4866314801898213e+00 0 0 0
21 21 8 0.0000000000000000e+00 -8.1597791636624333e+00 -2.2395854654608871e+00 -4.1837995033848481e+00 0 0 0
22 22 8 0.0000000000000000e+00 -7.1888025745125157e+00 -6.8911318396881374e-02 -2.6453541954304582e+00 0 0 0
23 23 8 0.0000000000000000e+00 -4.9080224763605553e+00 -1.6262950928479694e+00 -2.1124643937504328e+00 0 0 0
24 24 8 0.0000000000000000e+00 -5.5228658856282733e+00 -1.0367882581140428e+00 -4.8647391242077580e+00 0 0 0
66 66 8 0.0000000000000000e+00 -4.1284460815300577e+00 -4.6525266113583355e+00 -6.0809170634730840e+00 0 0 0
68 68 8 0.0000000000000000e+00 -1.6724504064447425e+00 -3.6587205249383996e+00 -6.6289982330593942e+00 0 0 0
69 69 8 0.0000000000000000e+00 -3.4026389404644513e+00 -5.4367085753883817e+00 -3.3803704121000919e+00 0 0 0
70 70 8 0.0000000000000000e+00 -2.4454684116776741e+00 -3.3809169743403586e+00 -1.5900650862831698e+00 0 0 0
72 72 8 0.0000000000000000e+00 -9.3426309551123476e-01 -4.3333151469090430e+00 -3.8342547670878844e+00 0 0 0
81 81 8 0.0000000000000000e+00 -3.8239934989234960e+00 -1.9028133187685217e+00 -7.0541615744682211e+00 0 0 0
83 83 8 0.0000000000000000e+00 -4.8639991951821854e-01 -1.6328785508711747e+00 -4.7428651341836039e+00 0 0 0
85 85 8 0.0000000000000000e+00 -3.1558376532573829e+00 -2.5770453847823926e+00 -4.2057869356694413e+00 0 0 0
86 86 8 0.0000000000000000e+00 -2.2948891144701138e+00 -4.5480708854889884e-01 -2.4412455557246373e+00 0 0 0
9 9 8 0.0000000000000000e+00 -7.4954887271292607e+00 -5.7664615425305392e+00 -5.1660876288445168e-01 0 0 0
12 12 8 0.0000000000000000e+00 -5.0461152746725082e+00 -4.4794727992459782e+00 -1.1929982980517118e+00 0 0 0
73 73 8 0.0000000000000000e+00 -2.8742258214510370e+00 -6.2302601824080357e+00 -6.6141154864776164e-01 0 0 0
67 67 8 0.0000000000000000e+00 -1.9456426741444335e+00 -6.3627848316858442e+00 -5.5169834331077867e+00 0 0 0
120 120 8 0.0000000000000000e+00 -1.0743289051759877e+00 -6.9730681411072855e+00 -2.7457186783195739e+00 0 1 0
50 50 8 0.0000000000000000e+00 -9.0971212092942135e+00 -7.2582316515667396e+00 -4.7920759707481126e+00 0 1 0
109 109 8 0.0000000000000000e+00 -2.5907429416151229e+00 1.6326619831743623e+00 4.1987857804593558e+00 0 0 0
61 61 8 0.0000000000000000e+00 -9.7046564303478391e+00 3.8871999264933961e+00 3.5775933381242915e+00 0 0 0
112 112 8 0.0000000000000000e+00 -1.3097741210647494e-02 2.8029001687382027e+00 3.6553945127252678e+00 0 0 0
82 82 8 0.0000000000000000e+00 -2.8677913682880054e+00 7.8740978825539834e-02 -5.1449759663229795e+00 0 0 0
35 35 8 0.0000000000000000e+00 -7.6451090710209213e+00 8.0660543779539984e-01 -5.2693167592087899e+00 0 0 0
37 37 8 0.0000000000000000e+00 -9.4157402874833185e+00 1.7000990955543216e+00 -3.1294551451582726e+00 0 0 0
39 39 8 0.0000000000000000e+00 -4.6842551192625326e+00 1.1542837851209511e+00 -3.0161274199153016e+00 0 0 0
40 40 8 0.0000000000000000e+00 -6.9313301161679259e+00 2.9842535211765027e+00 -3.4859533642841205e+00 0 0 0
49 49 8 0.0000000000000000e+00 -9.4877839857089494e+00 5.4039874699077268e+00 -6.8006645520605966e+00 0 0 0
51 51 8 0.0000000000000000e+00 -7.3274648377702496e+00 3.8078317370274055e+00 -6.1290135284765759e+00 0 0 0
52 52 8 0.0000000000000000e+00 -6.6962047059729466e+00 6.4874033917350786e+00 -7.1167212316191737e+00 0 0 0
53 53 8 0.0000000000000000e+00 -9.3630889029207189e+00 4.7759769344296181e+00 -4.0031559036582101e+00 0 0 0
54 54 8 0.0000000000000000e+00 -8.2850288652950770e+00 6.7162644367079887e+00 -2.1753501447686117e+00 0 0 0
55 55 8 0.0000000000000000e+00 -6.1347232719449520e+00 5.0059143888977644e+00 -1.6375964235798739e+00 0 0 0
56 56 8 0.0000000000000000e+00 -6.7368463516166761e+00 5.8171298852786970e+00 -4.3553551758703817e+00 0 0 0
98 98 8 0.0000000000000000e+00 -5.0363130792065078e+00 2.1500844959820422e+00 -5.7554351375266783e+00 0 0 0
108 108 8 0.0000000000000000e+00 -8.1868778379826912e-01 3.8454326599316895e+00 1.0645276339778160e+00 0 0 0
100 100 8 0.0000000000000000e+00 -2.1577285722535784e+00 3.1758158729568233e+00 -6.2440978543575483e+00 0 0 0
101 101 8 0.0000000000000000e+00 -2.1838882971009550e+00 2.3298397072391497e+00 -3.5423819964426579e+00 0 0 0
102 102 8 0.0000000000000000e+00 -3.8224218224885744e+00 3.5155439054402722e+00 -1.3287062463594543e+00 0 0 0
103 103 8 0.0000000000000000e+00 -1.6163140604232686e+00 1.8046975788409443e+00 -8.4824969218065149e-01 0 0 0
113 113 8 0.0000000000000000e+00 -4.4199156333161795e+00 4.8716953892928982e+00 -6.6143717158135766e+00 0 0 0
114 114 8 0.0000000000000000e+00 -4.3467878322499578e+00 7.0934477788230863e+00 -4.9400684164336672e+00 0 0 0
115 115 8 0.0000000000000000e+00 -1.8911791731204939e+00 5.6609169332002374e+00 -4.4587951745892918e+00 0 0 0
117 117 8 0.0000000000000000e+00 -4.3530886565118001e+00 4.1301045558331833e+00 -3.9202440115795172e+00 0 0 0
118 118 8 0.0000000000000000e+00 -3.6450294432279060e+00 6.3770726596931304e+00 -2.2812791206119334e+00 0 0 0
119 119 8 0.0000000000000000e+00 -1.2812236057739630e+00 4.6772791123067279e+00 -1.9026884847635614e+00 0 0 0
44 44 8 0.0000000000000000e+00 -6.3255108748148787e+00 2.0212683344498217e+00 -8.6494413399341630e-01 0 0 0
105 105 8 0.0000000000000000e+00 -3.9644875810907982e+00 1.8601970587492575e-01 -3.1728550058691529e-01 0 0 0
41 41 8 0.0000000000000000e+00 -8.7288722322628782e+00 6.7228522840466876e-01 -5.1306332428497625e-01 0 0 0
38 38 8 0.0000000000000000e+00 -8.8044956849821538e+00 3.8439489194232190e+00 -1.3895034054984048e+00 0 0 0
60 60 8 0.0000000000000000e+00 -5.3593439279713699e+00 7.0760170028053837e+00 -6.9249113596267379e-04 0 0 0
116 116 8 0.0000000000000000e+00 -1.8420437349645598e+00 6.0638093826482375e+00 -7.3125037017899732e+00 0 0 0
1 1 8 0.0000000000000000e+00 -8.8115013068787089e+00 -6.6281340971667762e+00 7.1089030350022968e+00 0 0 -1
14 14 8 0.0000000000000000e+00 -9.3668876821463520e+00 -5.5529991643964314e+00 4.4554334932090329e+00 0 0 0
92 92 8 0.0000000000000000e+00 -1.5054624609175080e+00 -1.5350780798072632e+00 2.1954248240171487e-01 0 0 0
20 20 8 0.0000000000000000e+00 -5.9097196442835873e+00 -4.7312738022667594e-05 7.3139002896957601e+00 0 0 -1
4 4 8 0.0000000000000000e+00 -6.2127418826909082e+00 -5.3129636393335273e+00 6.6846571021982202e+00 0 0 -1
17 17 8 0.0000000000000000e+00 -8.2903816634629308e+00 -3.4914357282118837e+00 6.1261809070706361e+00 0 0 -1
65 65 8 0.0000000000000000e+00 -4.0919970850374341e+00 -7.1152453115890797e+00 7.0898347482662638e+00 0 0 -1
10 10 8 0.0000000000000000e+00 -9.0482324489512731e+00 -4.8918805939285894e+00 1.4604111129767632e+00 0 0 0
11 11 8 0.0000000000000000e+00 -6.9156017651632418e+00 -6.7231189345732529e+00 2.1630296310083401e+00 0 0 0
13 13 8 0.0000000000000000e+00 -7.1185069030574377e+00 7.3826263496688984e+00 4.8471710818945457e+00 0 -1 0
15 15 8 0.0000000000000000e+00 -4.4758719503347706e+00 -6.1989543197690971e+00 4.3356757721824764e+00 0 0 0
16 16 8 0.0000000000000000e+00 -6.6090350664644619e+00 -4.3680929153789663e+00 3.9951640240627451e+00 0 0 0
25 25 8 0.0000000000000000e+00 -9.1577079112248363e+00 -2.0307149156662501e+00 5.0901000286531983e-01 0 0 0
27 27 8 0.0000000000000000e+00 -6.6928416757639333e+00 -3.5470111811741440e+00 1.1389944741076952e+00 0 0 0
28 28 8 0.0000000000000000e+00 -6.5428611570963744e+00 -8.9102575149420404e-01 1.9260428447383365e-01 0 0 0
29 29 8 0.0000000000000000e+00 -9.0108956089190855e+00 -2.6426542614621376e+00 3.1876108030125176e+00 0 0 0
30 30 8 0.0000000000000000e+00 -8.0539458661379033e+00 -6.7298590701652050e-01 5.1106888163796995e+00 0 0 0
31 31 8 0.0000000000000000e+00 -5.6742764220515776e+00 -2.3971908222964164e+00 5.6974961053112825e+00 0 0 0
32 32 8 0.0000000000000000e+00 -6.2100506342274810e+00 -1.4801031622904548e+00 2.8588750332533217e+00 0 0 0
74 74 8 0.0000000000000000e+00 -4.6040338824150560e+00 -5.2963832868240015e+00 1.4607571330814884e+00 0 0 0
75 75 8 0.0000000000000000e+00 -2.4726561847903556e+00 -7.0230712790528740e+00 2.0077765413201916e+00 0 0 0
76 76 8 0.0000000000000000e+00 -1.9791270721330545e+00 -4.1835954676945493e+00 1.0968482548561314e+00 0 0 0
77 77 8 0.0000000000000000e+00 -1.9971655728616120e+00 -4.9183761380659545e+00 3.7453729181245348e+00 0 0 0
78 78 8 0.0000000000000000e+00 -3.5485263717921827e+00 -4.1319541671785016e+00 6.0221433749500317e+00 0 0 0
79 79 8 0.0000000000000000e+00 -1.5725820134558390e+00 -6.0461138295235619e+00 6.4430807240048571e+00 0 0 0
84 84 8 0.0000000000000000e+00 -1.1739650037192142e+00 -7.6166920012363160e-01 -7.3936276479839300e+00 0 0 0
89 89 8 0.0000000000000000e+00 -4.2047802237408582e+00 -2.5225645499468432e+00 6.1325601013987319e-01 0 0 0
90 90 8 0.0000000000000000e+00 -3.5785492642978620e+00 -4.5368098837003601e-01 2.4673052174080801e+00 0 0 0
91 91 8 0.0000000000000000e+00 -1.3765786501347537e+00 -2.1467203274449385e+00 2.9974080910576744e+00 0 0 0
93 93 8 0.0000000000000000e+00 -4.0837278303128732e+00 -3.2074188508835322e+00 3.3435088579397005e+00 0 0 0
94 94 8 0.0000000000000000e+00 -2.9861048692368826e+00 -1.2327680060263821e+00 5.1473609875965494e+00 0 0 0
95 95 8 0.0000000000000000e+00 -7.9151979394312366e-01 -3.0634856976992300e+00 5.5503212488520184e+00 0 0 0
96 96 8 0.0000000000000000e+00 -3.2346399953394728e-01 1.2854441409093661e-02 4.6507881389923789e+00 0 0 0
127 127 8 0.0000000000000000e+00 -2.4146319746612957e-01 5.1078796886983042e+00 5.3320692416617259e+00 0 0 0
99 99 8 0.0000000000000000e+00 -2.0446024745038133e-01 1.0799990304175959e+00 -5.5943676584405546e+00 0 0 0
124 124 8 0.0000000000000000e+00 -5.6172583402246201e-01 6.9666685491340630e+00 -5.9906003253868453e-02 0 0 0
110 110 8 0.0000000000000000e+00 -2.9609459063893677e+00 3.8075609295621082e+00 5.9684335512674815e+00 0 0 0
58 58 8 0.0000000000000000e+00 -9.4855169106061474e+00 6.9785021277641999e+00 2.5404755226443729e+00 0 0 0
121 121 8 0.0000000000000000e+00 -3.0698723829912629e+00 5.4555112304190896e+00 3.9321353818464039e-01 0 0 0
111 111 8 0.0000000000000000e+00 -5.1668590120828317e-01 2.2290920957664784e+00 6.4675125975934700e+00 0 0 0
126 126 8 0.0000000000000000e+00 -5.0997000076727694e+00 5.5530377050346083e+00 5.4018022042042801e+00 0 0 0
33 33 8 0.0000000000000000e+00 -8.1450915105719304e+00 1.6935803380238403e+00 6.9016897285695764e+00 0 0 -1
36 36 8 0.0000000000000000e+00 -5.5353576006241898e+00 2.8060277770309505e+00 6.3785757892580932e+00 0 0 -1
97 97 8 0.0000000000000000e+00 -3.3495331668520776e+00 1.1115130638732311e+00 6.9055874130193597e+00 0 0 -1
122 122 8 0.0000000000000000e+00 -4.6460416525077495e+00 6.1470048052354267e+00 2.6742232823009275e+00 0 0 0
26 26 8 0.0000000000000000e+00 -8.5279828943819140e+00 1.9055919933504595e-01 2.2946621220517911e+00 0 0 0
42 42 8 0.0000000000000000e+00 -8.0907015576226389e+00 3.0876105683066566e+00 1.3681763556901634e+00 0 0 0
43 43 8 0.0000000000000000e+00 -5.8192841416331262e+00 1.2711357786459692e+00 1.8309700615929683e+00 0 0 0
45 45 8 0.0000000000000000e+00 -7.4978945258847061e+00 2.1051448777581134e+00 4.2277835309413021e+00 0 0 0
128 128 8 0.0000000000000000e+00 -2.5244454160013583e+00 6.7437588942592424e+00 4.7703694607846341e+00 0 0 0
47 47 8 0.0000000000000000e+00 -5.2485233714257244e+00 4.7845038941175427e-01 4.5392527170616956e+00 0 0 0
48 48 8 0.0000000000000000e+00 -4.9062686715421444e+00 3.2862236256251949e+00 3.6709217317545022e+00 0 0 0
57 57 8 0.0000000000000000e+00 -7.8263386801398003e+00 5.9551725391407642e+00 4.8723391488516793e-01 0 0 0
59 59 8 0.0000000000000000e+00 -5.5221579855314609e+00 4.1289594506334044e+00 8.9130948902586427e-01 0 0 0
125 125 8 0.0000000000000000e+00 -2.3236011906028353e+00 4.3543575053900803e+00 3.3264812259134149e+00 0 0 0
63 63 8 0.0000000000000000e+00 -7.7508473527471686e+00 4.4694925525902249e+00 5.8413114356995557e+00 0 0 0
64 64 8 0.0000000000000000e+00 -7.1524938347151013e+00 5.0902342797392617e+00 3.1897119622639520e+00 0 0 0
106 106 8 0.0000000000000000e+00 -3.2293573117858765e+00 2.4165364180420101e+00 1.4504740259876319e+00 0 0 0
107 107 8 0.0000000000000000e+00 -1.0478891705930251e+00 7.7348302919175260e-01 1.9159478300402186e+00 0 0 0
71 71 8 0.0000000000000000e+00 -2.1435121270113211e-01 -4.9503719582644816e+00 -9.1262195074780139e-01 0 0 0
123 123 8 0.0000000000000000e+00 -2.6291784528433237e-01 6.4190722474208828e+00 2.7460478113465734e+00 0 0 0
259 288 9 4.1699999999999998e-01 -9.8426428658441623e+00 -1.9309118320160095e+00 -2.3073139550656738e+00 1 0 0
273 293 9 4.1699999999999998e-01 -9.8289434539453691e+00 9.5078080329572301e-01 4.2587657332261042e+00 1 0 0
129 129 7 1.3300000000000001e+00 2.6287610198668614e+00 -4.7125980121080264e+00 -3.7052210164316812e+00 0 0 0
130 129 5 -2.8000000000000003e-01 2.6832657983529127e+00 -3.4571562454469533e+00 -2.7870609829161967e+00 0 0 0
131 129 6 -6.5000000000000002e-01 1.9760599365396561e+00 -4.1409530602095712e+00 -4.8421146451395716e+00 0 0 0
132 129 6 -6.5000000000000002e-01 1.9110893393787094e+00 -5.7436230612149348e+00 -2.9708575125693519e+00 0 0 0
133 129 6 -6.5000000000000002e-01 4.0199554236332178e+00 -4.9881862531860186e+00 -3.9665505813550688e+00 0 0 0
134 129 3 -2.8000000000000003e-01 3.2665618705771609e+00 -3.7079632955514987e+00 -1.5354879298500554e+00 0 0 0
135 129 1 8.9999999999999997e-02 4.3017689730907369e+00 -4.0873049717148451e+00 -1.6724684563603116e+00 0 0 0
136 129 1 8.9999999999999997e-02 2.6658497915789972e+00 -4.4169092824749754e+00 -9.2650407196502038e-01 0 0 0
137 129 3 -1.7999999999999999e-01 3.2862478484281747e+00 -2.4074025851903356e+00 -7.3418881022896754e-01 0 0 0
138 129 1 8.9999999999999997e-02 3.0017067501840748e+00 -1.6136787168760927e+00 -1.4576247574725376e+00 0 0 0
139 129 1 8.9999999999999997e-02 4.3406643524041231e+00 -2.1958774509622021e+00 -4.5529648664502798e-01 0 0 0
221 275 9 4.1699999999999998e-01 5.5494709653099310e+00 -5.6256697419844617e+00 -3.4012787948073977e+00 0 0 0
222 276 10 -8.3399999999999996e-01 8.4275118714084076e+00 -4.4489964124944521e+00 -4.1894576971627897e+00 0 0 0
223 276 9 4.1699999999999998e-01 7.6416673895093616e+00 -4.7625596997323720e+00 -3.7418439012712184e+00 0 0 0
224 276 9 4.1699999999999998e-01 9.0677532277380610e+00 -4.3216071581719708e+00 -3.4893909944244532e+00 0 0 0
225 277 10 -8.3399999999999996e-01 8.9483607489367003e+00 -4.0421934412463791e+00 -1.4128108088923212e+00 0 0 0
252 286 10 -8.3399999999999996e-01 4.3867588455207773e+00 1.0665006456170190e+00 -2.6835813780692996e+00 0 0 0
254 286 9 4.1699999999999998e-01 4.2521759504609493e+00 1.9647719055058346e+00 -2.9856172461106341e+00 0 0 0
185 263 9 4.1699999999999998e-01 1.9227178263933791e+00 -2.7714821028525853e+00 -6.3106398242417887e+00 0 0 1
192 266 10 -8.3399999999999996e-01 5.8779876853906776e+00 -4.0929765118928332e+00 -6.0221996564530480e+00 0 0 1
193 266 9 4.1699999999999998e-01 5.2473537065394202e+00 -4.2357198424224185e+00 -5.3163976838055094e+00 0 0 1
194 266 9 4.1699999999999998e-01 6.6175692960611006e+00 -3.6571873115633613e+00 -5.5987157974892945e+00 0 0 1
277 295 10 -8.3399999999999996e-01 2.6001148359681916e+00 -8.5016658762825592e-01 -3.9931147021193771e+00 0 0 1
278 295 9 4.1699999999999998e-01 2.5284012363468427e+00 -1.7515854861573450e+00 -3.6792203240903141e+00 0 0 1
279 295 9 4.1699999999999998e-01 2.3729794306929817e+00 -9.0058101147686020e-01 -4.9216048375438817e+00 0 0 1
249 285 10 -8.3399999999999996e-01 8.0743665290361992e+00 -6.9576965829831545e+00 -6.6601170427388174e+00 0 0 1
250 285 9 4.1699999999999998e-01 8.6902726580661884e+00 -7.0128553162554432e+00 -7.3907657465621188e+00 0 0 1
251 285 9 4.1699999999999998e-01 8.2589632782930469e+00 -6.1107858784025639e+00 -6.2540442402419574e+00 0 0 1
214 273 9 4.1699999999999998e-01 2.1960415758901850e+00 -6.7101774495951512e+00 -1.0240665513265930e+00 0 1 0
253 286 9 4.1699999999999998e-01 3.7258912134705682e+00 5.5486615437376763e-01 -3.1501803423804966e+00 0 0 0
255 287 10 -8.3399999999999996e-01 8.5062111383111390e+00 -1.8459642177730176e+00 -5.1638491305909433e+00 0 0 0
256 287 9 4.1699999999999998e-01 8.6384102831434522e+00 -2.7591144513246988e+00 -4.9090730520535946e+00 0 0 0
257 287 9 4.1699999999999998e-01 8.9366717720280562e+00 -1.3398373830072252e+00 -4.4748220559973921e+00 0 0 0
264 290 12 1.0000000000000000e+00 6.2711697510239119e+00 3.2043254248910774e-01 -2.0847282290110263e+00 0 0 0
228 278 10 -8.3399999999999996e-01 8.5655769191958271e+00 -6.5604286009057313e+00 1.5213750913032265e-01 0 0 0
180 262 10 -8.3399999999999996e-01 1.5025930032506885e+00 -5.3848981151867275e+00 -7.3681402158762923e+00 0 0 1
182 262 9 4.1699999999999998e-01 1.2086518514259426e+00 -5.1303127470235310e+00 -6.4934882001811003e+00 0 0 1
183 263 10 -8.3399999999999996e-01 1.6712847379428899e+00 -2.0421012500922195e+00 -6.8772209097915233e+00 0 0 1
184 263 9 4.1699999999999998e-01 1.4939178297608835e+00 -2.4475919494413856e+00 7.0680862755557490e+00 0 0 0
275 294 9 4.1699999999999998e-01 8.6839664505687821e+00 -3.4121558809144243e+00 6.9023035467974392e+00 0 0 0
176 260 9 4.1699999999999998e-01 1.0315243286199554e+00 -7.2511397169599610e+00 5.4198232253376855e+00 0 0 0
217 274 9 4.1699999999999998e-01 1.0096017814698932e+00 -7.2146642644799712e+00 -6.8270749058809832e+00 0 1 1
227 277 9 4.1699999999999998e-01 9.3065808514446715e+00 -4.8322181805930295e+00 -1.0081292527294803e+00 0 0 0
209 271 9 4.1699999999999998e-01 1.2875288221812045e+00 5.9393846276714211e+00 -2.8276593066161291e+00 0 0 0
226 277 9 4.1699999999999998e-01 8.1668391743853022e+00 -3.8419221182250558e+00 -8.9770466482012679e-01 0 0 0
87 87 8 0.0000000000000000e+00 1.7260845055295518e-01 -2.1974306670441055e+00 -2.0560116869865515e+00 0 0 0
88 88 8 0.0000000000000000e+00 2.0823738425080593e-01 8.7342998059358190e-01 -2.9369528674320655e+00 0 0 0
213 273 10 -8.3399999999999996e-01 2.7511556452184962e+00 7.3952945693825631e+00 -6.5806872731654387e-01 0 0 0
219 275 10 -8.3399999999999996e-01 6.3024770127134158e+00 -5.9294528777214275e+00 -2.8943975812441627e+00 0 0 0
220 275 9 4.1699999999999998e-01 5.9523425147692128e+00 -6.0920392995310744e+00 -2.0184975053046954e+00 0 0 0
208 271 9 4.1699999999999998e-01 1.3975405756692894e+00 7.3408681613311595e+00 -3.3894685494005672e+00 0 0 0
246 284 10 -8.3399999999999996e-01 7.7133230033768410e+00 6.9077493582203680e+00 -4.1749635751442771e+00 0 -1 1
248 284 9 4.1699999999999998e-01 7.4086987907688826e+00 -7.1731297078065825e+00 -3.6138609247497855e+00 0 0 1
148 129 1 8.9999999999999997e-02 2.6542146635325508e+00 1.9442505973706328e-01 -4.3285380638831339e-01 0 0 0
186 264 10 -8.3399999999999996e-01 4.3467320717450031e+00 2.9110526116591839e+00 -5.9514133187923886e+00 0 0 0
187 264 9 4.1699999999999998e-01 3.9147914473927226e+00 3.4170884351148287e+00 -5.2632381325562347e+00 0 0 0
188 264 9 4.1699999999999998e-01 3.8029965806505506e+00 3.0479879932837077e+00 -6.7271915444811716e+00 0 0 0
198 268 10 -8.3399999999999996e-01 1.8269143228756395e+00 3.6611025323827935e+00 -6.9055877980879510e+00 0 0 0
200 268 9 4.1699999999999998e-01 1.6965232084252218e+00 4.6081123030226969e+00 -6.9545787967780317e+00 0 0 0
202 269 9 4.1699999999999998e-01 5.4824237574194461e+00 1.4298890795742427e+00 -6.8470860468632235e+00 0 0 0
204 270 10 -8.3399999999999996e-01 3.4632156208957059e+00 4.7241950872215659e+00 -3.6799917282400600e+00 0 0 0
205 270 9 4.1699999999999998e-01 2.6228734617234153e+00 5.1450074477903671e+00 -3.8615721481076992e+00 0 0 0
206 270 9 4.1699999999999998e-01 4.0241771288354498e+00 5.4337026877016221e+00 -3.3667058682899511e+00 0 0 0
207 271 10 -8.3399999999999996e-01 1.4236667652599204e+00 6.4187536756697785e+00 -3.6449116727591213e+00 0 0 0
62 62 8 0.0000000000000000e+00 9.8293894838863398e+00 6.2051976644739844e+00 5.3243960142547664e+00 -1 0 0
210 272 10 -8.3399999999999996e-01 5.4758581924972045e+00 -6.9249505882007760e+00 -4.6308338490793965e-01 0 1 0
211 272 9 4.1699999999999998e-01 4.6143002758893630e+00 -7.3379049916093786e+00 -5.2154094011461105e-01 0 1 0
212 272 9 4.1699999999999998e-01 5.5103255647498397e+00 -6.5661170646969778e+00 4.2363869382516717e-01 0 1 0
282 296 9 4.1699999999999998e-01 7.5378462921634286e+00 1.5442740827061857e-01 6.9371701037420328e+00 0 0 -1
283 297 10 -8.3399999999999996e-01 7.5601862692814059e+00 4.0215174708399406e+00 -4.0051033626010151e+00 0 0 0
284 297 9 4.1699999999999998e-01 7.0829471026687276e+00 4.6952996931642241e+00 -4.4893467260996802e+00 0 0 0
285 297 9 4.1699999999999998e-01 8.4602832597463973e+00 4.3450228964493736e+00 -3.9676708887520262e+00 0 0 0
286 298 10 -8.3399999999999996e-01 7.0771567179038044e+00 1.0990264934247669e+00 -4.1681676511099228e+00 0 0 0
287 298 9 4.1699999999999998e-01 6.8457923644814747e+00 1.0021899902145432e+00 -5.0919208119560810e+00 0 0 0
288 298 9 4.1699999999999998e-01 7.4539267166983585e+00 1.9767422919406183e+00 -4.1058610531939452e+00 0 0 0
289 299 10 -8.3399999999999996e-01 8.4319751926517643e+00 5.9208338547752231e+00 -1.1388530040079690e+00 0 0 0
290 299 9 4.1699999999999998e-01 7.8060820162948374e+00 6.2539221690774509e+00 -1.7819226584069492e+00 0 0 0
291 299 9 4.1699999999999998e-01 9.0369138451218145e+00 6.6482860501800749e+00 -9.9361925098920501e-01 0 0 0
216 274 10 -8.3399999999999996e-01 1.1057784125577170e+00 6.6582172351607021e+00 -6.5853164260246810e+00 0 0 1
218 274 9 4.1699999999999998e-01 1.1389995438354690e+00 6.6633715170429291e+00 -5.6287071504484931e+00 0 0 1
104 104 8 0.0000000000000000e+00 7.1591870435647298e-02 3.6486115117437574e+00 -4.4700642354035400e+00 0 0 0
247 284 9 4.1699999999999998e-01 7.7425164037584020e+00 7.2886440591251116e+00 -5.0526297381160088e+00 0 -1 1
292 300 10 -8.3399999999999996e-01 7.2465232509673898e+00 2.2056697537285475e+00 -1.3238131446328982e+00 0 0 0
293 300 9 4.1699999999999998e-01 7.5330545058992406e+00 2.8881486738296269e+00 -1.9307331450187104e+00 0 0 0
201 269 10 -8.3399999999999996e-01 5.9861926616628391e+00 6.2702419687286748e-01 -6.9807006547716703e+00 0 0 0
203 269 9 4.1699999999999998e-01 5.3635240080785485e+00 1.5667730524236090e-02 -7.3740917856827144e+00 0 0 0
229 278 9 4.1699999999999998e-01 7.7592423753254547e+00 -7.0759484105291977e+00 1.3493983385945021e-01 0 0 0
294 300 9 4.1699999999999998e-01 7.4708829368954914e+00 2.5453081548796872e+00 -4.5747667171111839e-01 0 0 0
231 279 10 -8.3399999999999996e-01 7.2908202679093446e+00 -3.6307317937247321e+00 9.4667302801864706e-01 0 0 0
258 288 10 -8.3399999999999996e-01 9.2315920150123265e+00 -1.3104885281487344e+00 -2.6348904914882896e+00 0 0 0
233 279 9 4.1699999999999998e-01 6.8330994484522574e+00 -4.4268048997475438e+00 1.2168407864168778e+00 0 0 0
232 279 9 4.1699999999999998e-01 7.6396215149739986e+00 -3.2665993968721678e+00 1.7602920615468369e+00 0 0 0
262 289 9 4.1699999999999998e-01 7.4816037216560032e+00 -1.6206046428772400e+00 1.3163051643787133e-01 0 0 0
215 273 9 4.1699999999999998e-01 2.7629248925083285e+00 -7.2227955472721304e+00 2.8274647050675783e-01 0 1 0
261 289 10 -8.3399999999999996e-01 7.2933016091197427e+00 -7.6477884770438875e-01 -2.5350213252853815e-01 0 0 0
263 289 9 4.1699999999999998e-01 7.7091612341004163e+00 -1.3831697672400442e-01 3.3881339718044112e-01 0 0 0
140 129 3 -1.7999999999999999e-01 2.2695974287656155e+00 -2.4021347436007323e+00 3.7816838620495924e-01 0 0 0
141 129 1 8.9999999999999997e-02 2.6066089688303231e+00 -3.1715444733215317e+00 1.1053198719696253e+00 0 0 0
142 129 1 8.9999999999999997e-02 1.2674980972922592e+00 -2.7351865980151624e+00 3.2931008965113584e-02 0 0 0
230 278 9 4.1699999999999998e-01 8.6895522541608905e+00 -6.3395342391484633e+00 1.0752126026853626e+00 0 0 0
181 262 9 4.1699999999999998e-01 2.2504131745419533e+00 -4.8143470000575057e+00 7.2485090201604550e+00 0 0 0
237 281 10 -8.3399999999999996e-01 4.7831662752782957e+00 -5.2024428688308877e+00 1.6944329457455913e+00 0 0 0
239 281 9 4.1699999999999998e-01 4.0082261267860142e+00 -5.7565525938578732e+00 1.7874963168405957e+00 0 0 0
146 129 3 -1.7999999999999999e-01 1.7884544348869027e+00 8.0573502946833103e-02 2.5403545916124759e-01 0 0 0
147 129 1 8.9999999999999997e-02 8.2928633494641291e-01 -1.2942738394469408e-01 -2.6578489324961219e-01 0 0 0
143 129 3 -1.7999999999999999e-01 2.0333023035281004e+00 -1.1309547568213694e+00 1.1521189889320980e+00 0 0 0
144 129 1 8.9999999999999997e-02 2.8857636884145190e+00 -8.7802315174445589e-01 1.8181940115995705e+00 0 0 0
145 129 1 8.9999999999999997e-02 1.1003617850841296e+00 -1.1858907089034476e+00 1.7528887201122505e+00 0 0 0
171 259 10 -8.3399999999999996e-01 2.3905357406899554e+00 -6.3690605050359670e+00 1.9167750019946437e+00 0 0 0
172 259 9 4.1699999999999998e-01 1.8463099810105337e+00 -5.5997818813903315e+00 2.0848819598847244e+00 0 0 0
173 259 9 4.1699999999999998e-01 2.1663409563403646e+00 -6.9797208673986235e+00 2.6189553976749793e+00 0 0 0
174 260 10 -8.3399999999999996e-01 1.1412454966108281e+00 -6.4395885650015821e+00 4.9242661985050002e+00 0 0 0
177 261 10 -8.3399999999999996e-01 3.8402850936427857e+00 -4.1530147987305037e+00 6.8082323184156470e+00 0 0 0
178 261 9 4.1699999999999998e-01 4.4738582896766239e+00 -4.3705623977127939e+00 -7.3020759367056360e+00 0 0 1
179 261 9 4.1699999999999998e-01 4.3749959113616717e+00 -3.9607785090447387e+00 6.0379361307397987e+00 0 0 0
189 265 10 -8.3399999999999996e-01 4.3324009750579426e+00 -1.2021764609961436e+00 6.7116974316983358e+00 0 0 0
190 265 9 4.1699999999999998e-01 3.9866335982229533e+00 -2.0329557105665397e+00 7.0380088000610748e+00 0 0 0
234 280 10 -8.3399999999999996e-01 7.6025946007444372e+00 -6.7575750616321777e+00 5.2907967321475233e+00 0 0 0
235 280 9 4.1699999999999998e-01 7.2977723475328196e+00 -7.2040330831491914e+00 6.0807258300959601e+00 0 0 0
236 280 9 4.1699999999999998e-01 7.9426116427811015e+00 -5.9196951961827722e+00 5.6047590056207053e+00 0 0 0
240 282 10 -8.3399999999999996e-01 7.5351554991178515e+00 -5.8736510668663984e+00 2.7287539687079909e+00 0 0 0
241 282 9 4.1699999999999998e-01 6.6201637937728615e+00 -5.6689029397564230e+00 2.5361424207332082e+00 0 0 0
242 282 9 4.1699999999999998e-01 7.5182585892436187e+00 -6.2389526995071938e+00 3.6133443348924934e+00 0 0 0
243 283 10 -8.3399999999999996e-01 5.7651754181088393e+00 -3.2434137701945711e+00 5.2316990882995240e+00 0 0 0
244 283 9 4.1699999999999998e-01 5.2959753625365327e+00 -2.5402016569159107e+00 5.6806642027805978e+00 0 0 0
245 283 9 4.1699999999999998e-01 6.2782559543661813e+00 -2.7974935628273623e+00 4.5578055380815430e+00 0 0 0
268 292 10 -8.3399999999999996e-01 7.8077686341668828e+00 -2.1275619165394053e+00 3.6089181774875616e+00 0 0 0
269 292 9 4.1699999999999998e-01 8.6899127359457395e+00 -2.4073850394150300e+00 3.8533579561373439e+00 0 0 0
270 292 9 4.1699999999999998e-01 7.7920618197349132e+00 -1.1896589705490073e+00 3.7995025356184979e+00 0 0 0
274 294 10 -8.3399999999999996e-01 8.2268968176950654e+00 -4.1653449951630712e+00 6.5281127660279985e+00 0 0 0
276 294 9 4.1699999999999998e-01 7.3021110800178466e+00 -3.9191933936842451e+00 6.5483615044289865e+00 0 0 0
80 80 8 0.0000000000000000e+00 4.7357903836776821e-01 -4.2173957751219895e+00 2.7554496262577493e+00 0 0 0
271 293 10 -8.3399999999999996e-01 8.9724194302425371e+00 7.0116875396675837e-01 4.2488918476185278e+00 0 0 0
175 260 9 4.1699999999999998e-01 1.0732806628827887e+00 -5.7464076216061954e+00 5.5808575445029662e+00 0 0 0
167 129 4 -2.7000000000000002e-01 4.5460371788617628e+00 5.0690673421579318e+00 5.2812845325287414e+00 0 0 0
165 129 1 8.9999999999999997e-02 2.4074165603068929e+00 4.4299413207603422e+00 5.4557894736148711e+00 0 0 0
169 129 2 8.9999999999999997e-02 4.9841457933773254e+00 5.8394339326375135e+00 4.6112793876029627e+00 0 0 0