LAMMPS data file via write_data, version 16 Mar 2018, timestep = 5000

714 atoms
12 atom types
403 bonds
8 bond types
260 angles
13 angle types
132 dihedrals
18 dihedral types

-1.9115131575272503e+01 1.9115131575272503e+01 xlo xhi
-7.1681744860865608e+00 7.1681744860865608e+00 ylo yhi
-7.1681744860865608e+00 7.1681744860865608e+00 zlo zhi

Masses

1 1.008
2 1.008
3 12.011
4 12.011
5 15.9994
6 15.9994
7 32.06
8 196.966
9 1.008
10 15.9994
11 35.45
12 22.9898

Pair Coeffs # lj/charmmfsw/coul/long

1 0.028 2.38761 0.028 2.38761
2 0.024 2.38761 0.024 2.38761
3 0.056 3.58141 0.01 3.38542
4 0.078 3.63487 0.01 3.38542
5 0.1 2.93997 0.1 2.93997
6 0.12 3.02906 0.12 3.02906
7 0.47 3.74177 0.47 3.74177
8 5.29 2.62904 5.29 2.62904
9 0.046 0.400014 0.046 0.400014
10 0.1521 3.15057 0.1521 3.15057
11 0.15 4.04468 0.15 4.04468
12 0.0469 2.42993 0.0469 2.42993

Bond Coeffs # harmonic

1 222.5 1.53
2 222.5 1.528
3 309 1.111
4 340 1.43
5 322 1.111
6 450 0.9572
7 540 1.448
8 250 1.575

Angle Coeffs # charmm

1 58.35 113.6 11.16 2.561
2 58 115 8 2.561
3 26.5 110.1 22.53 2.179
4 75.7 110.1 0 0
5 34.6 110.1 22.53 2.179
6 15 109 27 1.9
7 34.6 110.1 22.53 2.179
8 35.5 109 5.4 1.802
9 60 109.5 0 0
10 35.5 108.4 5.4 1.802
11 55 104.52 0 0
12 130 109.47 35 2.45
13 85 98 0 0

Dihedral Coeffs # charmmfsw

1 0.101 2 0 1
2 0.142 3 180 0
3 0.074 4 0 0
4 0.097 5 0 0
5 0.162 2 0 1
6 0.047 3 180 0
7 0.105 4 0 0
8 0.177 5 0 0
9 0.19 3 0 1
10 0 3 0 1
11 0.16 3 0 1
12 0 3 0 1
13 0 3 0 1
14 0.19 3 0 1
15 0.19 3 0 1
16 0.19 3 0 1
17 0.16 3 0 1
18 0 3 0 1

Atoms # full

1 1 8 0.0000000000000000e+00 -1.2978508808521795e+01 -5.7691357864372712e+00 -5.5001857979580784e+00 0 0 0
2 2 8 0.0000000000000000e+00 -1.1710972554618625e+01 -4.8164437744004314e+00 -3.0638167289993330e+00 0 0 0
4 4 8 0.0000000000000000e+00 -1.0384079258151647e+01 -4.5153088040486615e+00 -5.6309725705650271e+00 0 0 0
6 6 8 0.0000000000000000e+00 -1.3905729668252615e+01 -5.2777726423563358e+00 -1.2189836704573196e+00 0 0 0
7 7 8 0.0000000000000000e+00 -1.1531179530322159e+01 -6.8487815463280803e+00 -1.2060682047950229e+00 0 0 0
17 17 8 0.0000000000000000e+00 -1.4333224184767538e+01 -3.6892115972904205e+00 -6.7385833950002656e+00 0 0 0
18 18 8 0.0000000000000000e+00 -1.2086203579463248e+01 -2.4200647198024665e+00 -5.2642742603742754e+00 0 0 0
21 21 8 0.0000000000000000e+00 -1.4476978629673912e+01 -3.7258671508439392e+00 -3.6519902557115480e+00 0 0 0
23 23 8 0.0000000000000000e+00 -1.2533430549507525e+01 -2.1501524722836409e+00 -2.4123912051134928e+00 0 0 0
24 24 8 0.0000000000000000e+00 -1.0661866852921808e+01 -2.7403837070845238e-01 -3.6387148540304053e+00 0 0 0
174 260 10 -8.3399999999999996e-01 -1.7215552958530186e+01 -3.6955327746687261e+00 -5.7923188388114983e+00 0 0 0
175 260 9 4.1699999999999998e-01 -1.7016234649154271e+01 -2.7707411678723197e+00 -5.6446856250412942e+00 0 0 0
176 260 9 4.1699999999999998e-01 -1.7973724457528643e+01 -3.6873250007280691e+00 -6.3770159842981737e+00 0 0 0
177 261 10 -8.3399999999999996e-01 -1.6002052907770292e+01 -6.1352737067414544e+00 -4.3811305588792209e+00 0 0 0
178 261 9 4.1699999999999998e-01 -1.5192686123486546e+01 -6.0934916721695345e+00 -3.8712847426136765e+00 0 0 0
179 261 9 4.1699999999999998e-01 -1.6160581660031905e+01 -5.2314059240018773e+00 -4.6543628180166401e+00 0 0 0
180 262 10 -8.3399999999999996e-01 -1.6902751746465391e+01 -2.0957467616987717e+00 -2.5016532140647616e+00 0 0 0
181 262 9 4.1699999999999998e-01 -1.6674064684097367e+01 -3.0251612700320631e+00 -2.5272475829426932e+00 0 0 0
186 264 10 -8.3399999999999996e-01 -1.6963293942892825e+01 -4.6500230850019406e+00 -2.0956716563111080e+00 0 0 0
187 264 9 4.1699999999999998e-01 -1.7848337408781578e+01 -4.7008322521194827e+00 -2.4574451754567113e+00 0 0 0
188 264 9 4.1699999999999998e-01 -1.6691508505529747e+01 -5.5628022734240510e+00 -1.9970315727027081e+00 0 0 0
254 286 9 4.1699999999999998e-01 -1.6382089100777051e+01 6.4744719459216737e+00 -5.2035561055184285e+00 0 0 0
12 12 8 0.0000000000000000e+00 -1.1811228849752336e+01 -3.7576200939591584e+00 -3.0655001411794380e-01 0 0 0
25 25 8 0.0000000000000000e+00 -1.4332189023059959e+01 -2.4220658400551311e+00 -1.8753997550112356e-01 0 0 0
182 262 9 4.1699999999999998e-01 -1.7857590961357904e+01 -2.0853189819691540e+00 -2.4313945040570077e+00 0 0 0
237 281 10 -8.3399999999999996e-01 -1.6166435893130938e+01 -1.1832622288197250e+00 -5.1971162635140322e+00 0 0 1
398 334 9 4.1699999999999998e-01 -5.5348461866768162e-01 3.0449630464230548e-01 -2.0191815054962028e+00 0 0 0
713 440 9 4.1699999999999998e-01 -1.8731526236609273e+01 4.0146470054467898e-01 -5.2552566227208706e+00 1 0 1
52 52 8 0.0000000000000000e+00 -1.0710628279580572e+01 -6.8601110718032183e+00 -6.7660321638546126e+00 0 1 0
238 281 9 4.1699999999999998e-01 -1.6133085018599647e+01 -1.5546539868790239e+00 -4.3152347275394840e+00 0 0 1
185 263 9 4.1699999999999998e-01 -1.6509717508097520e+01 -4.4274469390992532e+00 -4.4885641140585797e-02 0 0 0
28 28 8 0.0000000000000000e+00 -1.1938850927496482e+01 -7.1675156605781432e-01 -2.3971547225520773e-01 0 0 0
19 19 8 0.0000000000000000e+00 -9.6958344952265794e+00 -2.8890812216234947e+00 -3.3565893926671446e+00 0 0 0
20 20 8 0.0000000000000000e+00 -9.4087786641010762e+00 -1.7599699157556241e+00 -5.8342102969147653e+00 0 0 0
206 270 9 4.1699999999999998e-01 -1.7709691490093647e+01 -3.1250298480627166e+00 3.2596009500857290e+00 0 0 0
239 281 9 4.1699999999999998e-01 -1.6032815604713871e+01 -2.4408584929206700e-01 -5.0672825410738538e+00 0 0 1
22 22 8 0.0000000000000000e+00 -1.4477402070009779e+01 -1.0499444528003554e-01 -1.7517899290037322e+00 0 0 0
299 301 9 4.1699999999999998e-01 -9.3013885282278608e-02 -7.0227297513945626e+00 1.1540614648764356e+00 0 0 0
286 297 9 4.1699999999999998e-01 -8.5729494947576157e-01 6.8610055358613282e+00 -1.7860412543594144e+00 0 -1 0
359 321 9 4.1699999999999998e-01 -2.4864476402032523e+00 4.6143218825172712e+00 -6.6322609199242208e+00 0 0 1
86 86 8 0.0000000000000000e+00 -9.3479460553059965e+00 -1.9496947342155027e+00 -7.9833998702158215e-01 0 0 0
8 8 8 0.0000000000000000e+00 -9.4743214525598827e+00 -4.7656628228748534e+00 -1.1919024234416939e+00 0 0 0
66 66 8 0.0000000000000000e+00 -8.4204322176272886e+00 -5.3260161022263173e+00 -3.8145995500511054e+00 0 0 0
67 67 8 0.0000000000000000e+00 -5.6921252239744771e+00 -6.0546425934033579e+00 -4.9415193643804196e+00 0 0 0
70 70 8 0.0000000000000000e+00 -6.6308516993832995e+00 -5.7037364523560159e+00 -1.5262650265292699e+00 0 0 0
72 72 8 0.0000000000000000e+00 -3.9196419311390134e+00 -6.7285198585270338e+00 -2.3031532691076704e+00 0 0 0
81 81 8 0.0000000000000000e+00 -6.9555823323972827e+00 -3.3469273733334877e+00 -5.0068100873783266e+00 0 0 0
82 82 8 0.0000000000000000e+00 -7.7275849822221598e+00 -8.5677793605752406e-01 -3.7943736495816975e+00 0 0 0
83 83 8 0.0000000000000000e+00 -4.6605586280303992e+00 -4.0349260267086837e+00 -3.1606168624684248e+00 0 0 0
84 84 8 0.0000000000000000e+00 -4.8967913645081662e+00 -1.7740560914342369e+00 -5.8567905794627242e+00 0 0 0
85 85 8 0.0000000000000000e+00 -7.1363971680184921e+00 -3.0721060557332249e+00 -2.1782669179644802e+00 0 0 0
88 88 8 0.0000000000000000e+00 -4.9208642815252652e+00 -1.2177632308423378e+00 -3.0853476855812740e+00 0 0 0
279 295 10 -8.3399999999999996e-01 -1.9370379533182138e+00 6.5301463245877143e+00 -4.6598212115380111e+00 0 -1 0
280 295 9 4.1699999999999998e-01 -1.8628105466886922e+00 6.2200235137573268e+00 -3.7570051212900428e+00 0 -1 0
281 295 9 4.1699999999999998e-01 -2.5575872469794128e+00 5.9275536813334133e+00 -5.0703862185488688e+00 0 -1 0
282 296 10 -8.3399999999999996e-01 -2.3812159675452698e+00 -5.2093949904079011e+00 -5.0104858457751167e+00 0 0 0
284 296 9 4.1699999999999998e-01 -2.5620756695114402e+00 -5.1407694409066051e+00 -5.9482185862885268e+00 0 0 0
288 298 10 -8.3399999999999996e-01 -2.2384174350799526e+00 -2.4365201130006469e+00 -4.5172938644489005e+00 0 0 0
289 298 9 4.1699999999999998e-01 -2.6149607811016686e+00 -2.4408347789731408e+00 -3.6369776210649873e+00 0 0 0
290 298 9 4.1699999999999998e-01 -2.3337261120353041e+00 -3.3386668742195003e+00 -4.8235810333337010e+00 0 0 0
312 306 10 -8.3399999999999996e-01 -2.1774791704131466e+00 -2.7206891582014583e+00 -1.6833826283551589e+00 0 0 0
314 306 9 4.1699999999999998e-01 -2.5181263959778839e+00 -3.1545914935598400e+00 -9.0078970095323641e-01 0 0 0
101 101 8 0.0000000000000000e+00 -6.8950356749826689e+00 -4.0071266750886370e-01 -1.1749018236214663e+00 0 0 0
313 306 9 4.1699999999999998e-01 -1.8431916847330356e+00 -1.8813857877518414e+00 -1.3662308259036910e+00 0 0 0
371 325 9 4.1699999999999998e-01 -1.6749169350217379e+00 -4.3349511820237492e+00 -2.1954673793321771e+00 0 0 0
369 325 10 -8.3399999999999996e-01 -1.3827855475530839e+00 -5.1842323422826997e+00 -2.5273472331454547e+00 0 0 0
340 315 9 4.1699999999999998e-01 -2.7487369137783944e+00 4.5559355551308203e+00 7.9414229755865495e-01 0 0 0
283 296 9 4.1699999999999998e-01 -2.3880879450942594e+00 -6.1502342996099255e+00 -4.8329023013676018e+00 0 0 0
92 92 8 0.0000000000000000e+00 -3.4550561960951960e+00 -1.4308740797928809e-01 -7.1637301648881380e-01 0 0 0
76 76 8 0.0000000000000000e+00 -4.3007141643172222e+00 -5.1110338131888060e+00 1.0725007119683827e-01 0 0 0
87 87 8 0.0000000000000000e+00 -5.0765406683637302e+00 -2.3434114264332679e+00 -3.3674033685712956e-01 0 0 0
310 305 9 4.1699999999999998e-01 -2.0596492434679661e+00 -1.8571711572622469e+00 -6.0461088340702807e+00 0 0 0
429 345 10 -8.3399999999999996e-01 -9.7705515203918836e-01 -6.1701436586003462e+00 4.0002778242871413e+00 0 1 0
107 107 8 0.0000000000000000e+00 -7.0658208617783362e+00 2.4631357437072241e+00 2.8927054921106974e+00 0 0 0
326 310 9 4.1699999999999998e-01 -3.0438099671213870e+00 -7.1841851382788313e-02 -6.7634648271483995e+00 0 0 0
388 331 9 4.1699999999999998e-01 -5.4351610921526472e-01 4.7399094254586407e+00 4.3106380188022735e+00 0 0 0
65 65 8 0.0000000000000000e+00 -8.1389381850521758e+00 -5.2040227383090985e+00 -6.8787676339477049e+00 0 0 0
68 68 8 0.0000000000000000e+00 -4.9132106057523934e+00 -4.4479639602807239e+00 7.1141243244675278e+00 0 0 -1
292 299 9 4.1699999999999998e-01 -1.7837000597261365e+00 -5.9308603081873068e+00 -7.2255450827997336e-01 0 0 0
430 345 9 4.1699999999999998e-01 -3.0096592150783863e-01 -6.4718415435410837e+00 3.3931173635629017e+00 0 1 0
3 3 8 0.0000000000000000e+00 -1.0737915198018838e+01 7.1010570253608991e+00 -3.9068880589647814e+00 0 -1 0
354 320 10 -8.3399999999999996e-01 -2.3607303005681288e+00 2.3803534220713596e+00 5.8296508822847732e+00 0 0 0
111 111 8 0.0000000000000000e+00 -5.9438315106350093e+00 9.9002802365533604e-02 6.6975052425560646e+00 0 0 0
362 322 9 4.1699999999999998e-01 -1.4783260260405129e-01 -4.6685463704844059e+00 -6.7982807387910444e+00 0 0 0
5 5 8 0.0000000000000000e+00 -1.3473061921017774e+01 6.9207842062557399e+00 -3.1163700316922531e+00 0 -1 0
252 286 10 -8.3399999999999996e-01 -1.6754009565996963e+01 5.6477362907731523e+00 -5.5116883840758737e+00 0 0 0
259 288 9 4.1699999999999998e-01 -1.5574664079527707e+01 -6.7460459404625857e+00 -6.2827625581266222e-01 0 1 0
213 273 10 -8.3399999999999996e-01 -1.7362203718922700e+01 1.0342994185338457e+00 -1.3278083491088246e+00 0 0 0
385 330 9 4.1699999999999998e-01 -4.6548374660600089e-01 7.9107056776765639e-01 4.5039231571946265e+00 0 0 0
214 273 9 4.1699999999999998e-01 -1.7181266671352617e+01 1.9240084689766617e+00 -1.6318542637044091e+00 0 0 0
215 273 9 4.1699999999999998e-01 -1.7528813569835712e+01 5.3624822017396934e-01 -2.1284019459033283e+00 0 0 0
34 34 8 0.0000000000000000e+00 -1.2738872103772671e+01 2.4928551183489231e+00 -5.4039705455776446e+00 0 0 0
35 35 8 0.0000000000000000e+00 -1.1277128556859605e+01 2.0997710518682755e-01 -6.4007986505451671e+00 0 0 0
37 37 8 0.0000000000000000e+00 -1.3502958025064263e+01 -1.1329575843199535e-01 -4.4510857156112245e+00 0 0 0
38 38 8 0.0000000000000000e+00 -1.2267480194106446e+01 1.8067618985608069e+00 -2.6150839210519914e+00 0 0 0
39 39 8 0.0000000000000000e+00 -9.7280986150133781e+00 7.3690465977761388e-01 -1.2821857298334303e+00 0 0 0
40 40 8 0.0000000000000000e+00 -1.0109478893779347e+01 2.3345545721467635e+00 -4.5382226681356226e+00 0 0 0
50 50 8 0.0000000000000000e+00 -1.3003397365180000e+01 5.6869367862260178e+00 -5.6733850752899260e+00 0 0 0
51 51 8 0.0000000000000000e+00 -1.0393347854299977e+01 4.8184912014223427e+00 -5.9199312415649850e+00 0 0 0
53 53 8 0.0000000000000000e+00 -1.4229455836979898e+01 3.9010042063619599e+00 -3.3836280545054400e+00 0 0 0
54 54 8 0.0000000000000000e+00 -1.2502871610773944e+01 4.7714617032476516e+00 -9.2889002457789882e-01 0 0 0
55 55 8 0.0000000000000000e+00 -9.8691688953074035e+00 3.4070487420472437e+00 -1.3865240238331795e+00 0 0 0
56 56 8 0.0000000000000000e+00 -1.1495800490880653e+01 4.4617814630425849e+00 -3.4564932682712297e+00 0 0 0
211 272 9 4.1699999999999998e-01 -1.6221374027038635e+01 2.0514248676972562e+00 -3.5326293792248968e+00 0 0 0
249 285 10 -8.3399999999999996e-01 -1.7983076748544622e+01 6.1643093630037642e+00 -3.2022064756960495e+00 0 0 0
250 285 9 4.1699999999999998e-01 -1.7368611165490211e+01 6.8629806731158167e+00 -2.9762538622478951e+00 0 0 0
251 285 9 4.1699999999999998e-01 -1.7866526571551312e+01 6.0374227832565177e+00 -4.1440556764636263e+00 0 0 0
258 288 10 -8.3399999999999996e-01 -1.6107305688361475e+01 7.0368402104893830e+00 -1.1998846628087518e+00 0 0 0
57 57 8 0.0000000000000000e+00 -1.4524382232894819e+01 2.4609856605120966e+00 -9.2542375463331883e-01 0 0 0
261 289 10 -8.3399999999999996e-01 -1.7244346547543611e+01 3.6727934763289154e+00 -1.9253118050518241e+00 0 0 0
262 289 9 4.1699999999999998e-01 -1.7908519660063671e+01 4.2895837290052645e+00 -2.2338666980416795e+00 0 0 0
263 289 9 4.1699999999999998e-01 -1.6900331191835498e+01 4.0707940910275928e+00 -1.1253041117673552e+00 0 0 0
210 272 10 -8.3399999999999996e-01 -1.6273080507535795e+01 1.5258311240829086e+00 -4.3312793643680436e+00 0 0 0
212 272 9 4.1699999999999998e-01 -1.6125320007088035e+01 2.1517843062121509e+00 -5.0405843610442602e+00 0 0 0
260 288 9 4.1699999999999998e-01 -1.6155544748541335e+01 6.1965515267736722e+00 -7.4342964395656264e-01 0 0 0
247 284 9 4.1699999999999998e-01 -1.5922682792972090e+01 4.0240014740008947e+00 -6.0545226661945657e+00 0 0 0
347 317 9 4.1699999999999998e-01 -2.2353788997223347e+00 3.3484827939253927e+00 4.4553927659010375e+00 0 0 0
246 284 10 -8.3399999999999996e-01 -1.5461349753070518e+01 3.2547012290562281e+00 -6.3893555660515560e+00 0 0 0
625 411 10 -8.3399999999999996e-01 -1.9087649855262715e+01 -5.6952980720710986e+00 1.2435705747718897e+00 1 0 0
698 435 9 4.1699999999999998e-01 -1.8531963798442099e+01 2.8070872939829039e+00 9.9273290045697227e-01 1 0 0
416 340 9 4.1699999999999998e-01 -1.0586622453015693e-01 6.5448118173624996e+00 -5.9515500246818478e+00 0 0 0
287 297 9 4.1699999999999998e-01 -1.2815440696622709e+00 5.4702460625109355e+00 -1.3629334278799972e+00 0 -1 0
410 338 9 4.1699999999999998e-01 -1.2742326397608394e+00 -3.4756687112383489e-01 5.4618957916929300e-01 0 0 -1
341 315 9 4.1699999999999998e-01 -2.1289840772647963e+00 5.8634707836995128e+00 3.4750484315785535e-01 0 0 0
285 297 10 -8.3399999999999996e-01 -9.2658824375920545e-01 5.9607599021776414e+00 -2.1046629234126835e+00 0 -1 0
69 69 8 0.0000000000000000e+00 -8.8052603916232766e+00 6.9644976155169660e+00 -1.9714756885574261e+00 0 -1 0
71 71 8 0.0000000000000000e+00 -5.3501856160911725e+00 6.4800146324420309e+00 -3.4038824936723167e-02 0 -1 0
97 97 8 0.0000000000000000e+00 -8.1671373107613139e+00 8.8326260673321766e-01 -5.9429852580403182e+00 0 0 0
98 98 8 0.0000000000000000e+00 -7.8962877306253887e+00 1.9741657737435228e+00 -2.8621916698634227e+00 0 0 0
99 99 8 0.0000000000000000e+00 -5.7143634142736452e+00 9.4173078304587232e-01 -4.7110487810638082e+00 0 0 0
100 100 8 0.0000000000000000e+00 -5.2337043785963644e+00 2.7326869032823682e+00 -6.8614726692868206e+00 0 0 0
102 102 8 0.0000000000000000e+00 -7.6812370758981157e+00 2.1661703260802563e+00 1.1744490034928390e-01 0 0 0
104 104 8 0.0000000000000000e+00 -5.2893694082157676e+00 1.9213805138992130e+00 -1.8357598885957769e+00 0 0 0
113 113 8 0.0000000000000000e+00 -7.7417362776081138e+00 3.8618227420447200e+00 -6.2054188924490923e+00 0 0 0
114 114 8 0.0000000000000000e+00 -8.1674648321358543e+00 6.7159722995843518e+00 -5.3906858033783536e+00 0 0 0
115 115 8 0.0000000000000000e+00 -5.8588151488243838e+00 3.6253311741983021e+00 -4.0370891527128165e+00 0 0 0
116 116 8 0.0000000000000000e+00 -5.1652017011923999e+00 5.5004211010999322e+00 -5.8590903718404084e+00 0 0 0
117 117 8 0.0000000000000000e+00 -8.7448188818391390e+00 4.6442991181962876e+00 -3.6116995138895200e+00 0 0 0
118 118 8 0.0000000000000000e+00 -7.3291941810539658e+00 4.6531566760565282e+00 -1.0142637654291304e+00 0 0 0
119 119 8 0.0000000000000000e+00 -4.2314770132622410e+00 4.7066753727319819e+00 -2.0785481901661411e+00 0 0 0
120 120 8 0.0000000000000000e+00 -6.4585842389469690e+00 6.2244211337864987e+00 -3.0945772536653360e+00 0 0 0
315 307 10 -8.3399999999999996e-01 -2.5958148143218551e+00 1.0873558822257747e+00 -3.8638782804952285e+00 0 0 0
316 307 9 4.1699999999999998e-01 -2.7101259519350194e+00 1.4794868416880087e+00 -2.9978936304157999e+00 0 0 0
317 307 9 4.1699999999999998e-01 -1.6639912406354824e+00 8.7180936577827506e-01 -3.9086928647623616e+00 0 0 0
324 310 10 -8.3399999999999996e-01 -3.0747811176014466e+00 8.5519690681080096e-01 -6.5259701885284613e+00 0 0 0
325 310 9 4.1699999999999998e-01 -3.2528036704151528e+00 8.5617305106365915e-01 -5.5851880888600647e+00 0 0 0
333 313 10 -8.3399999999999996e-01 -2.6442524022955176e+00 3.7122372413340274e+00 -4.8274816772231786e+00 0 0 0
334 313 9 4.1699999999999998e-01 -3.2091240297494625e+00 2.9461085078807647e+00 -4.7239082363365386e+00 0 0 0
335 313 9 4.1699999999999998e-01 -1.7693096914526052e+00 3.3981541034580429e+00 -4.5981540408347659e+00 0 0 0
336 314 10 -8.3399999999999996e-01 -2.0947391817948180e+00 2.6117197402805354e+00 -1.2396876816726436e+00 0 0 0
337 314 9 4.1699999999999998e-01 -2.0081992101267438e+00 3.4730022585559306e+00 -8.3046098769013454e-01 0 0 0
339 315 10 -8.3399999999999996e-01 -2.1741048266409315e+00 4.9327350910945631e+00 1.2737153584437699e-01 0 0 0
358 321 9 4.1699999999999998e-01 -2.9709886976648185e+00 4.7287309095590162e+00 6.2739290020058247e+00 0 0 0
348 318 10 -8.3399999999999996e-01 -2.7683344545328055e+00 2.2751678180155368e+00 1.6896458248292463e+00 0 0 0
172 259 9 4.1699999999999998e-01 -1.7304593455476521e+01 -5.9041112291703595e+00 6.2956972627420713e+00 0 0 -1
184 263 9 4.1699999999999998e-01 -1.5777919046273009e+01 -4.0589570733399469e+00 1.2286576513978895e+00 0 0 0
219 275 10 -8.3399999999999996e-01 -1.6851843921061196e+01 -1.0534286667666573e+00 1.9683075842655384e-01 0 0 0
220 275 9 4.1699999999999998e-01 -1.6969135384836719e+01 -2.0580549035161333e-01 -2.3275127658334238e-01 0 0 0
221 275 9 4.1699999999999998e-01 -1.6388020244748205e+01 -1.5874672626384685e+00 -4.4848657239305556e-01 0 0 0
183 263 10 -8.3399999999999996e-01 -1.6283001024990323e+01 -4.7637008096709730e+00 8.2246503377246682e-01 0 0 0
357 321 10 -8.3399999999999996e-01 -2.5365984978058016e+00 5.2248017123215034e+00 6.9681782838599178e+00 0 0 0
356 320 9 4.1699999999999998e-01 -2.7801129295609037e+00 2.1696709827067293e+00 6.6642121696813428e+00 0 0 0
9 9 8 0.0000000000000000e+00 -1.3817452362109222e+01 6.9675610015842144e+00 6.7665216561718999e-01 0 -1 0
10 10 8 0.0000000000000000e+00 -1.3497961603824209e+01 -4.8530986273786683e+00 1.8153884494208237e+00 0 0 0
11 11 8 0.0000000000000000e+00 -1.0790233635923997e+01 -5.7361297923421120e+00 1.3003058680896435e+00 0 0 0
13 13 8 0.0000000000000000e+00 -1.2447210046168486e+01 -6.8040266826460956e+00 3.6548593450975018e+00 0 0 0
14 14 8 0.0000000000000000e+00 -1.1942633037919258e+01 -4.7162777955919504e+00 6.3576605809758826e+00 0 0 0
16 16 8 0.0000000000000000e+00 -1.1203858973309639e+01 -4.1029886126131299e+00 3.5857425394795692e+00 0 0 0
26 26 8 0.0000000000000000e+00 -1.2677249154424171e+01 -2.1513086835754081e+00 2.1358315760433255e+00 0 0 0
27 27 8 0.0000000000000000e+00 -9.7345767502830665e+00 -2.9191223140952296e+00 1.6704707172150046e+00 0 0 0
29 29 8 0.0000000000000000e+00 -1.3856823314249850e+01 -3.6368916770786592e+00 4.4642786753964776e+00 0 0 0
30 30 8 0.0000000000000000e+00 -1.2189404319605405e+01 -1.8811051726040517e+00 6.2093380801730857e+00 0 0 0
31 31 8 0.0000000000000000e+00 -9.7275232680625177e+00 -3.2443552233996469e+00 6.0092816717095099e+00 0 0 0
32 32 8 0.0000000000000000e+00 -1.0651024854208282e+01 -1.3364983845916445e+00 3.8269060595730719e+00 0 0 0
190 265 9 4.1699999999999998e-01 -1.6326758742994745e+01 -6.5315573172679304e+00 1.7451595225788106e+00 0 0 0
198 268 10 -8.3399999999999996e-01 -1.6618678310136762e+01 -4.2247368865044912e+00 5.4028617180674461e+00 0 0 0
199 268 9 4.1699999999999998e-01 -1.7315396383785480e+01 -4.0353019403224728e+00 4.7740034918053018e+00 0 0 0
200 268 9 4.1699999999999998e-01 -1.6335975321970061e+01 -3.3645824645659768e+00 5.7142649266973260e+00 0 0 0
201 269 10 -8.3399999999999996e-01 -1.5825391816903451e+01 -6.8966795456965757e+00 4.6049297568333492e+00 0 0 0
202 269 9 4.1699999999999998e-01 -1.6257999258439074e+01 7.1512182799945121e+00 5.4089248102766190e+00 0 -1 0
203 269 9 4.1699999999999998e-01 -1.6035524820791132e+01 -5.9647826034360198e+00 4.5403165909496872e+00 0 0 0
225 277 10 -8.3399999999999996e-01 -1.6089075557966371e+01 -2.5119492431724417e+00 2.4482675686325228e+00 0 0 0
226 277 9 4.1699999999999998e-01 -1.5701813302970304e+01 -1.9429198702385868e+00 3.1138480401087749e+00 0 0 0
227 277 9 4.1699999999999998e-01 -1.6508180876898102e+01 -1.9103645711557133e+00 1.8324685038861643e+00 0 0 0
45 45 8 0.0000000000000000e+00 -1.3796804717730058e+01 -6.9055116972313080e-01 4.2160380256277401e+00 0 0 0
128 128 8 0.0000000000000000e+00 -4.3152010176875315e+00 6.7985141007136987e+00 4.7340413917052642e+00 0 0 0
672 426 9 4.1699999999999998e-01 -1.8584282979246129e+01 -2.0127808964988523e+00 6.2890200598062407e-01 1 0 0
15 15 8 0.0000000000000000e+00 -9.7622901096240824e+00 -5.9796170522671845e+00 5.1322491187560191e+00 0 0 0
240 282 10 -8.3399999999999996e-01 -1.6265089082504044e+01 -1.5166980177062861e+00 6.0015382504682444e+00 0 0 0
242 282 9 4.1699999999999998e-01 -1.6659305491008009e+01 -7.2208333374033451e-01 5.6410592445395169e+00 0 0 0
241 282 9 4.1699999999999998e-01 -1.5945359035579976e+01 -1.2554364025386437e+00 6.8654128779018260e+00 0 0 0
136 129 1 8.9999999999999997e-02 -2.0320520506810169e-01 -1.5577401012752707e+00 2.9348042913049293e+00 0 0 0
626 411 9 4.1699999999999998e-01 -1.8237845736882264e+01 -5.6170460391749932e+00 8.0943562268402047e-01 1 0 0
77 77 8 0.0000000000000000e+00 -7.3334118696404254e+00 6.7184493713732794e+00 4.0682777712230829e+00 0 -1 0
293 299 9 4.1699999999999998e-01 -1.9778469398975069e+00 -6.1086047295579311e+00 7.6873301607819755e-01 0 0 0
204 270 10 -8.3399999999999996e-01 -1.8568008928635965e+01 -3.5382643756996255e+00 3.3559929260076311e+00 0 0 0
309 305 10 -8.3399999999999996e-01 -1.9734776113985824e+00 -1.4866677830152657e+00 -6.9247801744823718e+00 0 0 0
127 127 8 0.0000000000000000e+00 -6.2292190729897516e+00 4.6396486511837916e+00 5.6414097478453291e+00 0 0 0
291 299 10 -8.3399999999999996e-01 -1.5462121671096725e+00 -6.5007053968697024e+00 9.3188230209610978e-03 0 0 0
431 345 9 4.1699999999999998e-01 -1.7113643045328608e+00 -5.9223158843080475e+00 3.4380202600391838e+00 0 1 0
345 317 10 -8.3399999999999996e-01 -1.9312906586191829e+00 3.8729208392316297e+00 3.7142724887283025e+00 0 0 0
311 305 9 4.1699999999999998e-01 -1.5930918101499039e+00 -2.1933009931021008e+00 6.8893260712140121e+00 0 0 -1
130 129 5 -2.8000000000000003e-01 -4.5128333928571607e-01 -3.4163689029771760e+00 2.0742612933431124e+00 0 0 0
73 73 8 0.0000000000000000e+00 -7.9866692596144606e+00 -6.7829799949538430e+00 5.9176390029206960e-01 0 0 0
74 74 8 0.0000000000000000e+00 -8.5405987998183779e+00 -5.1928639700327945e+00 2.8191670186910960e+00 0 0 0
75 75 8 0.0000000000000000e+00 -5.9623734105545214e+00 -5.9483420218257557e+00 2.2928992578747911e+00 0 0 0
78 78 8 0.0000000000000000e+00 -6.7903122155333744e+00 -4.8714066153846236e+00 5.0663613948920601e+00 0 0 0
80 80 8 0.0000000000000000e+00 -4.0339209937686373e+00 -4.8750082267116719e+00 4.3323619281597994e+00 0 0 0
89 89 8 0.0000000000000000e+00 -7.3938834096649337e+00 -3.9179658905952253e+00 5.3264480576561546e-01 0 0 0
90 90 8 0.0000000000000000e+00 -7.1898319287429686e+00 -1.2710419386302094e+00 1.5294909301398993e+00 0 0 0
91 91 8 0.0000000000000000e+00 -5.6072236054575750e+00 -3.1855738063427581e+00 2.7015287198981168e+00 0 0 0
93 93 8 0.0000000000000000e+00 -7.9798977267913358e+00 -2.5658690490873335e+00 3.9107744946751106e+00 0 0 0
94 94 8 0.0000000000000000e+00 -7.1566432127875448e+00 -2.4395982901164848e+00 6.7468121139054267e+00 0 0 0
95 95 8 0.0000000000000000e+00 -4.7764024137210708e+00 -2.0521838257204434e+00 5.3055939580733140e+00 0 0 0
96 96 8 0.0000000000000000e+00 -4.0823531740239147e+00 -6.9010129670076825e-01 3.0029152056633572e+00 0 0 0
129 129 7 1.3300000000000001e+00 -1.9755607633936236e+00 -3.4444402807629944e+00 2.1775865034375963e+00 0 0 0
132 129 6 -6.5000000000000002e-01 -2.2935771958423246e+00 -2.8094506554308190e+00 3.4313109229590415e+00 0 0 0
133 129 6 -6.5000000000000002e-01 -2.2456773371692726e+00 -4.8707739380419834e+00 2.0911927616156225e+00 0 0 0
300 302 10 -8.3399999999999996e-01 -2.2027175623698376e+00 -6.4705623680379185e+00 6.6364510090034328e+00 0 0 0
303 303 10 -8.3399999999999996e-01 -1.4402124882000784e+00 -3.6914781146146249e+00 5.9662286398946813e+00 0 0 0
304 303 9 4.1699999999999998e-01 -1.6392717330094300e+00 -3.3283554234537984e+00 5.1029318764529803e+00 0 0 0
305 303 9 4.1699999999999998e-01 -1.6836563240146809e+00 -4.6151262329758254e+00 5.9000997077561381e+00 0 0 0
109 109 8 0.0000000000000000e+00 -6.8007567299089313e+00 -1.2048456576803446e-01 4.0524734150269088e+00 0 0 0
131 129 6 -6.5000000000000002e-01 -2.4423111503468071e+00 -2.7246773530798860e+00 1.0306613942409930e+00 0 0 0
323 309 9 4.1699999999999998e-01 -2.1817121235104260e+00 -3.8292260120087196e-01 5.8576056696004786e+00 0 0 0
79 79 8 0.0000000000000000e+00 -6.1561536372034080e+00 -7.0761533590045085e+00 6.7194499637045881e+00 0 0 0
321 309 10 -8.3399999999999996e-01 -1.9163256770083521e+00 -1.5950738411967791e-01 4.9651824707553240e+00 0 0 0
47 47 8 0.0000000000000000e+00 -8.9945311429805948e+00 -4.0754564183542374e-01 6.0414821601188473e+00 0 0 0
409 338 9 4.1699999999999998e-01 -1.7165818085166471e+00 -9.3919796010720180e-01 1.8681286944366660e+00 0 0 -1
322 309 9 4.1699999999999998e-01 -1.8370695065038660e+00 -1.0034399781606833e+00 4.5199195266774614e+00 0 0 0
370 325 9 4.1699999999999998e-01 -1.8167384370064035e+00 -5.2723992237488400e+00 -3.3762732737720347e+00 0 0 0
205 270 9 4.1699999999999998e-01 -1.9066531556576987e+01 -3.2362048495441411e+00 2.5963884783365190e+00 0 0 0
377 327 9 4.1699999999999998e-01 -3.6222978940215356e-01 -3.6614879475352158e-01 -6.9562066875516351e+00 0 0 1
253 286 9 4.1699999999999998e-01 -1.6882277227303977e+01 5.7777294585863261e+00 -6.4515888188628692e+00 0 0 0
33 33 8 0.0000000000000000e+00 -1.3989123126104573e+01 4.0985008901356945e-01 7.1276838080639839e+00 0 0 -1
711 439 9 4.1699999999999998e-01 -1.7229086210103187e+01 2.2227808256960051e+00 5.9685423510077547e+00 1 0 0
709 439 10 -8.3399999999999996e-01 -1.7073630721036594e+01 1.2995844887488337e+00 6.1693064196731529e+00 1 0 0
189 265 10 -8.3399999999999996e-01 -1.6462511677720478e+01 6.9031645409978024e+00 2.0373955499865941e+00 0 -1 0
191 265 9 4.1699999999999998e-01 -1.6209966124531881e+01 6.9095549571337971e+00 2.9609448823618623e+00 0 -1 0
235 280 9 4.1699999999999998e-01 -1.6612565789861790e+01 3.2584054655558159e-01 4.1936615960149188e+00 0 0 0
236 280 9 4.1699999999999998e-01 -1.7850712041233521e+01 -1.8028760234415930e-01 3.4836953042941277e+00 0 0 0
106 106 8 0.0000000000000000e+00 -9.4188806258260236e+00 1.3340540403378336e+00 3.9337979635834914e+00 0 0 0
266 290 9 4.1699999999999998e-01 -1.6611738262620197e+01 1.3346027432910175e+00 2.1026490422730459e+00 0 0 0
265 290 9 4.1699999999999998e-01 -1.6763574173812742e+01 1.3755665918867086e+00 5.9649774279836087e-01 0 0 0
264 290 10 -8.3399999999999996e-01 -1.6737908618260157e+01 1.9386016065602307e+00 1.3705113232560722e+00 0 0 0
278 294 9 4.1699999999999998e-01 -1.6695033429582590e+01 4.6032764019201489e+00 4.9784621435020560e+00 0 0 0
248 284 9 4.1699999999999998e-01 -1.5706214227276947e+01 3.2115234745156309e+00 7.0223630007326312e+00 0 0 -1
277 294 9 4.1699999999999998e-01 -1.7733131683681808e+01 4.3114546405999254e+00 6.0416697899465186e+00 0 0 0
710 439 9 4.1699999999999998e-01 -1.7608644934323827e+01 1.1291804118408590e+00 6.9448619720248290e+00 1 0 0
36 36 8 0.0000000000000000e+00 -1.0071087599433470e+01 2.7490883832577557e+00 6.6078460314744012e+00 0 0 -1
49 49 8 0.0000000000000000e+00 -1.2696417652892727e+01 3.5146645957502587e+00 6.3695309195079099e+00 0 0 -1
243 283 10 -8.3399999999999996e-01 -1.6849116676646698e+01 3.8536329831269116e+00 3.2523740582044658e+00 0 0 -1
244 283 9 4.1699999999999998e-01 -1.7668545452890111e+01 4.2786285936713737e+00 2.9980615772023986e+00 0 0 -1
245 283 9 4.1699999999999998e-01 -1.6697368032799073e+01 3.1978929850431603e+00 2.5713906166543135e+00 0 0 -1
41 41 8 0.0000000000000000e+00 -1.4279407135569018e+01 1.9233448582512391e-01 1.1368024546395405e+00 0 0 0
42 42 8 0.0000000000000000e+00 -1.3856107067197449e+01 3.0353938251222230e+00 1.8505227691220822e+00 0 0 0
43 43 8 0.0000000000000000e+00 -1.1960915705071770e+01 7.6984857467582923e-01 2.6226809810154856e+00 0 0 0
44 44 8 0.0000000000000000e+00 -1.1752070876825956e+01 2.0512468902771142e+00 2.0332743881420523e-01 0 0 0
46 46 8 0.0000000000000000e+00 -1.4243533302784858e+01 2.0569102255063791e+00 4.4509772315811515e+00 0 0 0