LAMMPS data file via write_data, version 16 Mar 2018, timestep = 2500

281 atoms
12 atom types
157 bonds
8 bond types
137 angles
13 angle types
132 dihedrals
18 dihedral types

-9.8626932000000007e+00 9.8626932000000007e+00 xlo xhi
-7.3970199000000001e+00 7.3970199000000001e+00 ylo yhi
-7.3970199000000001e+00 7.3970199000000001e+00 zlo zhi

Masses

1 1.008
2 1.008
3 12.011
4 12.011
5 15.9994
6 15.9994
7 32.06
8 196.966
9 1.008
10 15.9994
11 35.45
12 22.9898

Pair Coeffs # lj/charmmfsw/coul/long

1 0.028 2.38761 0.028 2.38761
2 0.024 2.38761 0.024 2.38761
3 0.056 3.58141 0.01 3.38542
4 0.078 3.63487 0.01 3.38542
5 0.1 2.93997 0.1 2.93997
6 0.12 3.02906 0.12 3.02906
7 0.47 3.74177 0.47 3.74177
8 5.29 2.62904 5.29 2.62904
9 0.046 0.400014 0.046 0.400014
10 0.1521 3.15057 0.1521 3.15057
11 0.15 4.04468 0.15 4.04468
12 0.0469 2.42993 0.0469 2.42993

Bond Coeffs # harmonic

1 222.5 1.53
2 222.5 1.528
3 309 1.111
4 340 1.43
5 322 1.111
6 450 0.9572
7 540 1.448
8 250 1.575

Angle Coeffs # charmm

1 58.35 113.6 11.16 2.561
2 58 115 8 2.561
3 26.5 110.1 22.53 2.179
4 75.7 110.1 0 0
5 34.6 110.1 22.53 2.179
6 15 109 27 1.9
7 34.6 110.1 22.53 2.179
8 35.5 109 5.4 1.802
9 60 109.5 0 0
10 35.5 108.4 5.4 1.802
11 55 104.52 0 0
12 130 109.47 35 2.45
13 85 98 0 0

Dihedral Coeffs # charmmfsw

1 0.101 2 0 1
2 0.142 3 180 0
3 0.074 4 0 0
4 0.097 5 0 0
5 0.162 2 0 1
6 0.047 3 180 0
7 0.105 4 0 0
8 0.177 5 0 0
9 0.19 3 0 1
10 0 3 0 1
11 0.16 3 0 1
12 0 3 0 1
13 0 3 0 1
14 0.19 3 0 1
15 0.19 3 0 1
16 0.19 3 0 1
17 0.16 3 0 1
18 0 3 0 1

Atoms # full

1 1 8 0.0000000000000000e+00 -5.6250282633520214e+00 -6.0613810313232346e+00 -5.9199258730053215e+00 0 0 0
2 2 8 0.0000000000000000e+00 -3.4354404374440279e+00 -4.9892367818420551e+00 -3.7210332185031132e+00 0 0 0
3 3 8 0.0000000000000000e+00 -3.3878984259864016e+00 7.1953545893295221e+00 -5.1135887266541822e+00 0 -1 0
4 4 8 0.0000000000000000e+00 -3.6288011828977869e+00 -3.9354711269469931e+00 -6.6124742665868981e+00 0 0 0
5 5 8 0.0000000000000000e+00 -5.7929793011040394e+00 -6.7829024048613000e+00 -3.0070199453895530e+00 0 0 0
6 6 8 0.0000000000000000e+00 -5.3258172136940711e+00 -4.6534108932292613e+00 -1.2152634689313087e+00 0 0 0
7 7 8 0.0000000000000000e+00 -3.2678379616272584e+00 -6.8568355975281676e+00 -1.4566097007102823e+00 0 0 0
8 8 8 0.0000000000000000e+00 -3.1058560539110802e+00 -2.9504335287779546e+00 -1.7565184931762707e+00 0 0 0
17 17 8 0.0000000000000000e+00 -6.1699583485693275e+00 -2.6246084405598311e+00 -6.7926551240738604e+00 0 0 0
18 18 8 0.0000000000000000e+00 -6.7800014539371265e+00 -1.0421586108018857e+00 -4.3308603296779422e+00 0 0 0
19 19 8 0.0000000000000000e+00 -4.1303330278026822e+00 -2.0824310809091373e+00 -4.2105969893893826e+00 0 0 0
20 20 8 0.0000000000000000e+00 -3.7246679102982383e+00 -9.6632937922279249e-01 -6.8871071018487031e+00 0 0 0
21 21 8 0.0000000000000000e+00 -6.2149502487348540e+00 -3.9204672549901991e+00 -4.0828427863342709e+00 0 0 0
22 22 8 0.0000000000000000e+00 -5.8814821247367970e+00 -1.8993248819223010e+00 -1.6810073828207603e+00 0 0 0
125 137 10 -8.3399999999999996e-01 -9.0266895337746900e-01 -3.2307452816081876e+00 -3.5626554861931981e+00 0 0 0
150 145 9 4.1699999999999998e-01 -6.3243696157828588e-01 -3.9326980294014873e+00 -1.7698753614116969e+00 0 0 0
108 131 9 4.1699999999999998e-01 -8.2021461901048620e-01 -3.5902234989432582e+00 -6.9131730705881971e+00 0 0 0
149 145 10 -8.3399999999999996e-01 -5.4414787675560361e-01 -4.5141562863853508e+00 -1.0146646712978993e+00 0 0 0
222 170 10 -8.3399999999999996e-01 -9.0486729017704608e+00 -1.9220121980007476e+00 -6.0035609445635618e+00 1 0 0
227 171 9 4.1699999999999998e-01 -9.3745634626378553e+00 -2.0923251315143929e+00 -3.6811904240181890e+00 1 0 0
186 157 9 4.1699999999999998e-01 -5.4445314599059447e-01 9.1588833553859328e-01 4.8442576934139776e+00 0 0 -1
127 137 9 4.1699999999999998e-01 -1.0207694417487607e+00 -2.5453466882059899e+00 -2.9049973719212003e+00 0 0 0
110 132 10 -8.3399999999999996e-01 -6.7106371844837898e-01 -5.3092066104664788e+00 -5.6440433426165519e+00 0 0 0
109 131 9 4.1699999999999998e-01 -9.2300588655894222e-01 -2.0821383750552065e+00 -6.9968900339335978e+00 0 0 0
126 137 9 4.1699999999999998e-01 -1.2926248493179808e+00 -2.8693469031461110e+00 -4.3586188284646932e+00 0 0 0
226 171 9 4.1699999999999998e-01 -9.2954370802434365e+00 -1.7828149387755585e+00 -2.2013798414390320e+00 1 0 0
191 159 10 -8.3399999999999996e-01 -1.3604125393660556e+00 5.9549433505106846e+00 -2.7164880813345165e+00 0 0 0
201 163 10 -8.3399999999999996e-01 -8.8528267305132307e+00 -5.3212609224601106e+00 -2.3891682358839490e+00 1 0 0
202 163 9 4.1699999999999998e-01 -8.6644316056788195e+00 -5.8274112572467693e+00 -3.1794537132051732e+00 1 0 0
231 173 10 -8.3399999999999996e-01 -8.3497153494715945e+00 -3.5220417772678103e+00 -1.9815515308967860e-01 1 0 0
198 162 10 -8.3399999999999996e-01 -8.6357349225231701e+00 -5.2264515489357146e+00 -6.5940323744164040e+00 1 0 0
232 173 9 4.1699999999999998e-01 -8.0699170334301602e+00 -2.8130918982367170e+00 -7.7723632051609415e-01 1 0 0
200 162 9 4.1699999999999998e-01 -7.9753452658281381e+00 -5.3378973817957105e+00 -7.2779163106051596e+00 1 0 0
233 173 9 4.1699999999999998e-01 -8.6353031072006470e+00 -4.2173894629075646e+00 -7.9074544277128500e-01 1 0 0
112 132 9 4.1699999999999998e-01 -9.1225206142689907e-01 -5.0513295448762889e+00 -4.7543468175654233e+00 0 0 0
111 132 9 4.1699999999999998e-01 -5.4917822054896392e-01 -6.2573155377271537e+00 -5.5943894610441696e+00 0 0 0
225 171 10 -8.3399999999999996e-01 -9.3482330315028381e+00 -2.5107550335755802e+00 -2.8206934338177025e+00 1 0 0
122 136 10 -8.3399999999999996e-01 -1.1476556817899284e+00 -1.1781100711783685e+00 -5.3672442258150337e+00 0 0 0
124 136 9 4.1699999999999998e-01 -1.5093124903907431e+00 -3.3865611950457497e-01 -5.0830727258424044e+00 0 0 0
68 65 6 -6.5000000000000002e-01 -1.3215554772388483e-01 4.9618182801428583e+00 -6.9593226013607508e+00 0 0 1
277 188 9 4.1699999999999998e-01 -8.6070665052084756e+00 5.4756781896976827e+00 3.8597770116026182e+00 1 0 0
144 143 9 4.1699999999999998e-01 -7.1088619951906973e-01 6.5901677948436417e+00 -4.4162212206644735e+00 0 -1 0
113 133 10 -8.3399999999999996e-01 -6.5043550728357247e-01 -1.2812936926200931e+00 -1.6385808342327643e+00 0 0 0
192 159 9 4.1699999999999998e-01 -1.0507461854392415e+00 6.0744988090188476e+00 -1.8186876452696978e+00 0 0 0
199 162 9 4.1699999999999998e-01 -8.4191637568466611e+00 -4.3882974678645574e+00 -6.1855883087788435e+00 1 0 0
209 165 9 4.1699999999999998e-01 -8.8701986388641831e+00 -6.4846652164179091e+00 -1.0974998654762831e+00 1 0 0
238 175 9 4.1699999999999998e-01 -9.7826533333467758e+00 -1.7570172313909558e+00 3.3806627802735529e+00 1 0 0
223 170 9 4.1699999999999998e-01 -9.5421264032187079e+00 -1.5520474080530808e+00 -6.7355866322409366e+00 1 0 0
58 58 8 0.0000000000000000e+00 -6.5509590196587197e+00 6.7907883366071449e+00 2.6359242222750550e+00 0 0 0
203 163 9 4.1699999999999998e-01 -9.2232986742180287e+00 -4.5001088730577772e+00 -2.7127296521763080e+00 1 0 0
61 61 8 0.0000000000000000e+00 -6.7215951055376824e+00 4.3545968713747234e+00 4.2083879393985786e+00 0 0 0
260 182 9 4.1699999999999998e-01 -8.8342320034932609e+00 4.5456653957976174e+00 -4.3284905009593224e+00 1 0 0
256 181 9 4.1699999999999998e-01 -8.5557825067607691e+00 -6.3974974597290633e+00 -5.4290560147059530e+00 1 1 0
24 24 8 0.0000000000000000e+00 -3.5600883635725000e+00 -1.9368543913820926e-01 -2.3186055795713494e+00 0 0 0
230 172 9 4.1699999999999998e-01 -9.0041998837619293e+00 -1.7607528471085221e-01 -3.6384383015983607e-01 1 0 0
33 33 8 0.0000000000000000e+00 -6.5391414616073540e+00 3.0339976483998576e-01 -6.8763481533616497e+00 0 0 0
34 34 8 0.0000000000000000e+00 -6.1840812753651635e+00 3.5192087149674305e+00 -3.6965798164017891e+00 0 0 0
35 35 8 0.0000000000000000e+00 -4.9078349561435308e+00 1.0228271842898735e+00 -4.6363356485646703e+00 0 0 0
37 37 8 0.0000000000000000e+00 -8.1214187330924776e+00 1.5858260686853189e+00 -4.5123271551016266e+00 0 0 0
38 38 8 0.0000000000000000e+00 -8.3484911073743397e+00 2.9239602855184557e+00 -1.8570686544357073e+00 0 0 0
39 39 8 0.0000000000000000e+00 -6.0592318353596708e+00 1.1498662320042665e+00 -1.9677140735612040e+00 0 0 0
40 40 8 0.0000000000000000e+00 -3.7245623519669731e+00 2.7348205061466277e+00 -2.5529396395178718e+00 0 0 0
49 49 8 0.0000000000000000e+00 -6.5351080941766959e+00 3.1637546054342507e+00 -6.3589009252035931e+00 0 0 0
50 50 8 0.0000000000000000e+00 -6.0553996815812132e+00 5.9674356012501919e+00 -5.3001948457556924e+00 0 0 0
51 51 8 0.0000000000000000e+00 -3.7503267006422800e+00 3.9842632677561762e+00 -5.2072589983137876e+00 0 0 0
53 53 8 0.0000000000000000e+00 -7.3211365957568209e+00 5.7115144629860106e+00 -2.3465590438524258e+00 0 0 0
55 55 8 0.0000000000000000e+00 -5.7820082339645937e+00 3.9406577215105285e+00 -9.1441390830572411e-01 0 0 0
56 56 8 0.0000000000000000e+00 -4.3076097989882038e+00 5.6146666379142296e+00 -2.9084772197827835e+00 0 0 0
139 141 9 4.1699999999999998e-01 -1.8235186500600316e+00 2.2821716075980789e+00 -4.3580435106312532e+00 0 0 0
140 142 10 -8.3399999999999996e-01 -5.2607724362999198e-01 3.4310552580038136e+00 -3.2585067650180815e+00 0 0 0
142 142 9 4.1699999999999998e-01 -7.2655347219742383e-01 4.3597936086926694e+00 -3.1423757882747338e+00 0 0 0
9 9 8 0.0000000000000000e+00 -5.7551670456842636e+00 6.9575825049572870e+00 -3.0785779421976622e-01 0 -1 0
69 65 6 -6.5000000000000002e-01 -1.2760678887777390e+00 2.8464515036837996e+00 -7.3207552716469495e+00 0 0 1
60 60 8 0.0000000000000000e+00 -3.0645642817757772e+00 5.1215839334002720e+00 -4.6001495242705209e-01 0 0 0
228 172 10 -8.3399999999999996e-01 -8.6160581219345502e+00 -5.8961189581023543e-01 -1.1349244780424215e+00 1 0 0
194 160 10 -8.3399999999999996e-01 -5.8677424679849421e-01 7.2166539354603989e+00 -5.0440180940983848e-01 0 0 0
36 36 8 0.0000000000000000e+00 -4.1518693833294291e+00 1.9858536471292687e+00 -7.2533882575085746e+00 0 0 0
143 143 10 -8.3399999999999996e-01 -2.0107626015882410e-01 6.9104321817777112e+00 -5.1603699116308759e+00 0 -1 0
138 141 9 4.1699999999999998e-01 -1.9676833700791805e+00 1.9390365226954733e+00 -5.8254805939244827e+00 0 0 0
229 172 9 4.1699999999999998e-01 -7.6720088502832438e+00 -4.9434689318467284e-01 -1.0087203688922404e+00 1 0 0
193 159 9 4.1699999999999998e-01 -2.0254604512221031e+00 6.6333948625862558e+00 -2.8333132038674025e+00 0 0 0
137 141 10 -8.3399999999999996e-01 -1.9087056162797662e+00 1.5405402373701904e+00 -4.9571751171752707e+00 0 0 0
132 139 9 4.1699999999999998e-01 -1.1549727363374969e+00 1.6594298640888949e+00 -1.5907839495612486e-01 0 0 0
257 181 9 4.1699999999999998e-01 -8.3096357566054699e+00 7.0443144541778340e+00 -4.7944006389456124e+00 1 0 0
57 57 8 0.0000000000000000e+00 -5.1985480067556447e+00 4.5340003426812103e+00 1.8220821622362169e+00 0 0 0
128 138 10 -8.3399999999999996e-01 -6.2712805632584656e-01 3.2673920441089024e+00 -5.4340769369341746e-01 0 0 0
131 139 10 -8.3399999999999996e-01 -1.3568540484456828e+00 7.5744282847111821e-01 8.9709598531722709e-02 0 0 0
258 182 10 -8.3399999999999996e-01 -9.1495656133540901e+00 4.9869999284638560e+00 -5.1171733339181813e+00 1 0 0
255 181 10 -8.3399999999999996e-01 -8.4743642468413132e+00 -6.8315471149982274e+00 -4.5798185752161480e+00 1 1 0
276 188 10 -8.3399999999999996e-01 -9.3803046292285579e+00 5.2777056569855345e+00 3.3314384943960595e+00 1 0 0
224 170 9 4.1699999999999998e-01 -8.1383094389023469e+00 -1.9136537679492727e+00 -6.2991980332977198e+00 1 0 0
129 138 9 4.1699999999999998e-01 -8.7371239914536603e-02 3.9613827565790563e+00 -1.6489562434452243e-01 0 0 0
243 177 10 -8.3399999999999996e-01 -9.6563111318822799e+00 -5.9870499775953900e-01 6.5340214801362997e+00 1 0 0
107 131 10 -8.3399999999999996e-01 -6.9418121073732175e-01 -2.8550659945724264e+00 7.2809576479580604e+00 0 0 -1
154 146 9 4.1699999999999998e-01 -5.6458429283982059e-01 -5.8553762956253097e+00 -7.2935213295200647e+00 0 0 1
208 165 9 4.1699999999999998e-01 -7.7635439684515122e+00 7.3663886830477150e+00 -6.7561233849724645e-01 1 -1 0
59 59 8 0.0000000000000000e+00 -2.3720908362113655e+00 4.3893152925964980e+00 2.3589999543710811e+00 0 0 0
218 168 9 4.1699999999999998e-01 -9.7720279238587509e+00 -6.4427640494391856e+00 7.3431863917177784e+00 1 0 0
235 174 9 4.1699999999999998e-01 -9.1723063632201161e+00 -2.4562312428956075e+00 5.9119301451228639e+00 1 0 0
158 148 10 -8.3399999999999996e-01 -7.1678172507632920e-01 -3.6641309293848225e+00 1.9812857293803359e+00 0 0 0
145 143 9 4.1699999999999998e-01 -3.1321777011566532e-01 6.2400948224199126e+00 -5.8343907225674556e+00 0 -1 0
207 165 10 -8.3399999999999996e-01 -8.5357487940746548e+00 -6.9699610869121509e+00 -3.4326951962036895e-01 1 0 0
234 174 10 -8.3399999999999996e-01 -8.3970909025697935e+00 -3.0069361134057382e+00 5.8023988655673175e+00 1 0 0
23 23 8 0.0000000000000000e+00 -2.8651123725263883e+00 -1.7440724604695723e+00 9.3833448245878470e-01 0 0 0
214 167 9 4.1699999999999998e-01 -8.6780344639935425e+00 -5.7142346433504017e+00 4.2109178959977465e+00 1 0 0
52 52 8 0.0000000000000000e+00 -3.8366322862952607e+00 -7.1916844647965021e+00 6.7022206596317373e+00 0 1 -1
10 10 8 0.0000000000000000e+00 -5.7862585869907059e+00 -5.5959710627495660e+00 1.4944915202671263e+00 0 0 0
12 12 8 0.0000000000000000e+00 -3.1914307083496349e+00 -4.9459845973161363e+00 5.8452039306012149e-01 0 0 0
13 13 8 0.0000000000000000e+00 -4.7097150838157686e+00 -6.2068428864595484e+00 3.9555954145515542e+00 0 0 0
14 14 8 0.0000000000000000e+00 -5.9608629198281617e+00 -4.9553698140772742e+00 6.1667705284424779e+00 0 0 0
15 15 8 0.0000000000000000e+00 -2.6999584023541630e+00 -4.7641918974786686e+00 5.5638208232934492e+00 0 0 0
16 16 8 0.0000000000000000e+00 -3.8582892869757348e+00 -3.7774464390965861e+00 3.0060085515437325e+00 0 0 0
25 25 8 0.0000000000000000e+00 -5.5773856675729903e+00 -2.7449362996719104e+00 1.0326179819100190e+00 0 0 0
26 26 8 0.0000000000000000e+00 -7.3355711067356175e+00 -6.9455914758960147e-01 1.8146527760469460e+00 0 0 0
27 27 8 0.0000000000000000e+00 -2.1675116882985601e+00 -1.5341388482437952e+00 4.4541160529612034e+00 0 0 0
28 28 8 0.0000000000000000e+00 -5.0149984210670073e+00 -2.0045692745802850e-02 3.9897344700070236e-01 0 0 0
29 29 8 0.0000000000000000e+00 -6.5917047587174871e+00 -3.4535129509960401e+00 3.6175068636966499e+00 0 0 0
30 30 8 0.0000000000000000e+00 -6.8057558620665075e+00 -8.0517170997139242e-01 4.8226035561563512e+00 0 0 0
31 31 8 0.0000000000000000e+00 -4.4633994321471855e+00 -2.6080991481270717e+00 5.6367834786011874e+00 0 0 0
32 32 8 0.0000000000000000e+00 -4.7234389000496044e+00 -1.0305793922287607e+00 3.0325771864987243e+00 0 0 0
118 134 9 4.1699999999999998e-01 -7.3984076757678940e-01 -5.6622575836703337e+00 1.9513270634272566e+00 0 0 0
162 149 9 4.1699999999999998e-01 -1.3508324945910428e+00 -7.1790801122103556e+00 5.2275092941550696e+00 0 0 0
116 134 10 -8.3399999999999996e-01 -4.4962470137047078e-01 -6.5733036806083662e+00 1.9960672725477844e+00 0 0 0
117 134 9 4.1699999999999998e-01 -7.8237260962226163e-01 -6.8902103792252873e+00 2.8357583614069237e+00 0 0 0
244 177 9 4.1699999999999998e-01 -9.4831159863303185e+00 2.9793056192294959e-01 6.8208680264645798e+00 1 0 0
236 174 9 4.1699999999999998e-01 -7.6848943293435568e+00 -2.3888527840804112e+00 5.6381397322875033e+00 1 0 0
213 167 10 -8.3399999999999996e-01 -8.8037816764495211e+00 -5.5610386554237650e+00 5.1473744069794076e+00 1 0 0
265 184 9 4.1699999999999998e-01 -9.2138620627278254e+00 -3.3986966856401359e+00 1.4798918277126754e+00 1 0 0
215 167 9 4.1699999999999998e-01 -8.7776155145627097e+00 -4.6087292068576868e+00 5.2404020156394848e+00 1 0 0
151 145 9 4.1699999999999998e-01 -2.4209237160368197e-01 -3.9445039776320585e+00 -3.0721100918478617e-01 0 0 0
161 149 10 -8.3399999999999996e-01 -1.3070021794435689e+00 6.9547291903833282e+00 4.5358397465631599e+00 0 -1 0
250 179 9 4.1699999999999998e-01 -8.9444793560178120e+00 6.0199838409322748e+00 6.8815197341455150e+00 1 0 -1
195 160 9 4.1699999999999998e-01 -5.2771472487875704e-01 7.2923578190767371e+00 4.4797068544227586e-01 0 0 0
266 184 9 4.1699999999999998e-01 -9.4143805213859757e+00 -3.7604511756141115e+00 2.9361959019781785e+00 1 0 0
46 46 8 0.0000000000000000e+00 -6.4267706903970305e+00 2.0785628651298711e+00 5.8217053200176325e+00 0 0 0
165 150 9 4.1699999999999998e-01 -9.6018786442414630e+00 -6.4054836614727684e+00 2.1794236546807420e+00 1 0 0
130 138 9 4.1699999999999998e-01 -6.4524477465158303e-01 3.4615923777808537e+00 -1.4805255729593492e+00 0 0 0
62 62 8 0.0000000000000000e+00 -6.7225363639407831e+00 6.9855617427680281e+00 5.6895085400904719e+00 0 0 0
48 48 8 0.0000000000000000e+00 -3.8053923100180413e+00 3.1460348941562506e+00 4.7881249873242373e+00 0 0 0
251 179 9 4.1699999999999998e-01 -8.4309112401944741e+00 5.0488013321172547e+00 -6.8709115783352637e+00 1 0 0
47 47 8 0.0000000000000000e+00 -4.2232020333755775e+00 4.0323710997044049e-01 5.2989917671030682e+00 0 0 0
133 139 9 4.1699999999999998e-01 -2.2071565608048416e+00 8.1333645588413372e-01 5.2570667033351726e-01 0 0 0
65 65 7 1.3300000000000001e+00 -8.6707198873012992e-01 4.1157400188271360e+00 6.9163330491240389e+00 0 0 0
166 150 9 4.1699999999999998e-01 -8.5099335861203063e+00 -5.6366330122372847e+00 1.4663873387425232e+00 1 0 0
249 179 10 -8.3399999999999996e-01 -8.5458557411914224e+00 5.1551933647266042e+00 6.9788292327948742e+00 1 0 -1
64 64 8 0.0000000000000000e+00 -4.3044705174502953e+00 5.7968630652259803e+00 4.2866961403344632e+00 0 0 0
63 63 8 0.0000000000000000e+00 -4.8937311747129879e+00 4.8960525710458773e+00 6.9208524221219001e+00 0 0 0
134 140 10 -8.3399999999999996e-01 -1.4963069571154073e+00 3.3182914005760583e-01 6.5360983034338700e+00 0 0 0
136 140 9 4.1699999999999998e-01 -1.6545276521160457e+00 -2.1613944731092796e-01 7.3048172641978741e+00 0 0 0
135 140 9 4.1699999999999998e-01 -1.4656524069884536e+00 1.2246005753870408e+00 6.8799762524012165e+00 0 0 0
253 180 9 4.1699999999999998e-01 -9.0186337519851065e+00 3.2056320843571999e+00 6.6564262743040290e+00 1 0 -1
163 149 9 4.1699999999999998e-01 -1.6978034446845398e+00 6.1726355876177470e+00 4.9255027135020866e+00 0 -1 0
252 180 10 -8.3399999999999996e-01 -9.4663526053613563e+00 2.4123054750393704e+00 6.9503869386597099e+00 1 0 -1
159 148 9 4.1699999999999998e-01 -1.5565522917746171e+00 -3.3345748488448268e+00 1.6612695523775478e+00 0 0 0
67 65 6 -6.5000000000000002e-01 -1.9267369942968846e+00 4.7824319961822530e+00 6.1569158634927756e+00 0 0 0
54 54 8 0.0000000000000000e+00 -8.0341471548440708e+00 4.8872119845223212e+00 6.4382305690638197e-01 0 0 0
11 11 8 0.0000000000000000e+00 -3.6395412394796027e+00 7.0529842331468915e+00 1.7103197973251105e+00 0 -1 0
41 41 8 0.0000000000000000e+00 -7.1007657347539910e+00 2.0192893274896990e+00 5.9316120389809812e-01 0 0 0
42 42 8 0.0000000000000000e+00 -8.1953501612303015e+00 1.8274399297740145e+00 3.5117985678545969e+00 0 0 0
43 43 8 0.0000000000000000e+00 -2.5598274452550753e+00 9.8352548404588214e-01 2.9015319959246644e+00 0 0 0
44 44 8 0.0000000000000000e+00 -3.5950125867337781e+00 2.3949072614430857e+00 5.2160043102858422e-01 0 0 0
45 45 8 0.0000000000000000e+00 -5.3439153417606216e+00 1.7079090152798222e+00 2.8299838992554549e+00 0 0 0
114 133 9 4.1699999999999998e-01 -1.0565683741077487e+00 -5.7464843632807650e-01 -1.1366440483300393e+00 0 0 0
123 136 9 4.1699999999999998e-01 -2.8920847775895370e-01 -1.2244027216556506e+00 -4.9463434859172484e+00 0 0 0
264 184 10 -8.3399999999999996e-01 -9.3943731629218750e+00 -3.0138412801517580e+00 2.3375249723154838e+00 1 0 0
196 160 9 4.1699999999999998e-01 -3.7092335168678447e-01 -6.7029705876312917e+00 -8.2849796819982757e-01 0 1 0
164 150 10 -8.3399999999999996e-01 -8.9013728249818680e+00 -5.7706699301122253e+00 2.3295452389898625e+00 1 0 0
179 155 10 -8.3399999999999996e-01 -3.3824912713110687e-02 -6.9576054397363429e-01 2.0827037343432369e+00 0 0 0
181 155 9 4.1699999999999998e-01 -4.2744128645952589e-01 -2.7874757253412835e-01 1.3162845602340365e+00 0 0 0
237 175 10 -8.3399999999999996e-01 -9.8608495792769499e+00 -8.6854298860479162e-01 3.7281263568579424e+00 1 0 0
278 188 9 4.1699999999999998e-01 -9.7446815957515796e+00 4.4857213856050961e+00 3.7266880210029996e+00 1 0 0
152 146 10 -8.3399999999999996e-01 -1.9495801086702785e-01 -6.3264648038345213e+00 6.7537359860281416e+00 0 0 0
254 180 9 4.1699999999999998e-01 -9.8250132671648061e+00 2.6427236038193040e+00 -6.9866220093877738e+00 1 0 0
245 177 9 4.1699999999999998e-01 -9.7336744525687813e+00 -5.3541116806307287e-01 5.5820542133655024e+00 1 0 0
160 148 9 4.1699999999999998e-01 -3.8605139075359768e-01 -2.9676236689449040e+00 2.5484956436283248e+00 0 0 0
205 164 9 4.1699999999999998e-01 -9.8462619915254095e+00 6.7977755557538035e+00 6.1494351219241061e-01 1 -1 0
78 65 1 8.9999999999999997e-02 -4.5408676086859577e-02 3.9259263244106064e+00 2.6510653472876133e+00 0 0 0
217 168 9 4.1699999999999998e-01 -9.8533071765193956e+00 -7.1085127740940823e+00 5.9859582882222515e+00 1 0 0
98 65 1 8.9999999999999997e-02 2.9085837415031586e+00 -2.6348651146384845e+00 1.9339655753686816e-01 0 0 0
102 65 1 8.9999999999999997e-02 5.0477372057122247e+00 -3.5822358847940730e+00 -2.0007313893818993e-01 0 0 0
104 65 2 8.9999999999999997e-02 3.5234284007497885e+00 -4.9632336220016420e+00 1.2623745750991513e+00 0 0 0
240 176 10 -8.3399999999999996e-01 7.7291581359269204e+00 1.9575242726091968e-01 -7.0401056334683041e+00 0 0 1
241 176 9 4.1699999999999998e-01 8.4790107258272105e+00 4.3064104208975183e-02 7.1789213179023275e+00 0 0 0
239 175 9 4.1699999999999998e-01 9.7661680526907109e+00 -3.1553522532909051e-01 2.9530534717699388e+00 0 0 0
97 65 3 -1.7999999999999999e-01 3.7616228194205776e+00 -2.2007746812730380e+00 7.5749866625286766e-01 0 0 0
103 65 4 -2.7000000000000002e-01 4.4581435180467892e+00 -4.5188152856455330e+00 1.6662570020325356e+00 0 0 0
106 65 2 8.9999999999999997e-02 4.1502747050363977e+00 -4.1281441135256989e+00 2.6596926363282392e+00 0 0 0
119 135 10 -8.3399999999999996e-01 2.0541876430760659e+00 6.7489181239531542e+00 -6.9960172368489983e+00 0 -1 1
219 169 10 -8.3399999999999996e-01 6.8946461778526773e+00 6.8331599036250230e+00 6.1911192660427554e+00 0 -1 0
221 169 9 4.1699999999999998e-01 7.8296014111493681e+00 6.7500186606613370e+00 6.3786787193980103e+00 0 -1 0
120 135 9 4.1699999999999998e-01 1.6990051807771325e+00 5.9495021240602526e+00 -6.6074154645314227e+00 0 -1 1
220 169 9 4.1699999999999998e-01 6.4626579573220644e+00 6.4029745212850679e+00 6.9290615090363019e+00 0 -1 0
169 151 9 4.1699999999999998e-01 3.8535631750213852e+00 -7.2072479008181434e+00 -6.5561042126764493e+00 0 0 1
168 151 9 4.1699999999999998e-01 4.4045870760013663e+00 -5.7972947977959111e+00 -6.5387593704761153e+00 0 0 1
262 183 9 4.1699999999999998e-01 9.4772614800090800e+00 1.7889390864809065e+00 1.2851212446861076e+00 0 0 0
247 178 9 4.1699999999999998e-01 8.2783918097549680e+00 2.5615348646663589e+00 -3.0908422771460611e+00 0 0 0
246 178 10 -8.3399999999999996e-01 8.7229939790334736e+00 3.2694316064551070e+00 -3.5571500796587534e+00 0 0 0
87 65 1 8.9999999999999997e-02 1.8710662374531859e+00 2.4660527064333890e+00 -8.1425618321251259e-01 0 0 0
92 65 1 8.9999999999999997e-02 2.3804186044264664e+00 -1.0653589981860086e-01 -7.2404019044240242e-01 0 0 0
248 178 9 4.1699999999999998e-01 8.3252270335034986e+00 3.2702479831967892e+00 -4.4277893140215321e+00 0 0 0
271 186 9 4.1699999999999998e-01 8.5307670498213479e+00 3.5879922992194229e+00 1.0182267711296444e-01 0 0 0
96 65 1 8.9999999999999997e-02 4.6597095033448106e+00 -1.0237282219936117e+00 -8.4126309991824078e-01 0 0 0
66 65 5 -2.8000000000000003e-01 3.7350346709436030e-02 3.5647479423093111e+00 5.7631853122756276e+00 0 0 0
270 186 10 -8.3399999999999996e-01 8.8134649389857103e+00 3.5342740234445742e+00 1.0147459956225562e+00 0 0 0
267 185 10 -8.3399999999999996e-01 3.4121550047405154e+00 -5.2893269108795993e+00 5.3128359284565017e+00 0 1 0
269 185 9 4.1699999999999998e-01 2.8788804216176387e+00 -5.7815721672243425e+00 4.6887006728236660e+00 0 1 0
197 161 12 1.0000000000000000e+00 5.3254159413989504e+00 -6.5103200365688174e+00 5.7941852218535095e+00 0 0 -1
261 183 10 -8.3399999999999996e-01 9.3586939777576941e+00 8.4562729192021435e-01 1.3961939466560689e+00 0 0 0
94 65 3 -1.7999999999999999e-01 4.2518913259334203e+00 -8.4928142459708511e-01 1.7735050778087558e-01 0 0 0
95 65 1 8.9999999999999997e-02 5.1016034678768607e+00 -4.3127346505530817e-01 7.5836672203097721e-01 0 0 0
99 65 1 8.9999999999999997e-02 3.4047240479061229e+00 -2.0008411436101237e+00 1.7904418209446264e+00 0 0 0
100 65 3 -1.7999999999999999e-01 4.8746406697867668e+00 -3.2894881232269775e+00 8.5759288538776179e-01 0 0 0
101 65 1 8.9999999999999997e-02 5.8538274815892182e+00 -2.9247657994211029e+00 1.2350740354994105e+00 0 0 0
105 65 2 8.9999999999999997e-02 5.2102888867316111e+00 -5.3211114347165465e+00 1.8241153043502474e+00 0 0 0
211 166 9 4.1699999999999998e-01 6.6480497975254602e+00 -3.6095932964684625e+00 5.4102293824764853e+00 0 0 0
155 147 10 -8.3399999999999996e-01 1.2829775276552216e+00 -6.8351702102909861e+00 4.0861748143248722e+00 0 0 0
156 147 9 4.1699999999999998e-01 8.6802613597146161e-01 -6.4614706533912249e+00 3.3087457859036333e+00 0 0 0
184 156 9 4.1699999999999998e-01 6.4652600300735203e+00 -1.0549648774545826e+00 4.8188130889074019e+00 0 0 0
242 176 9 4.1699999999999998e-01 7.2527753109393984e+00 -6.3448236617607967e-01 -7.0413816145435222e+00 0 0 1
157 147 9 4.1699999999999998e-01 5.9420180540374445e-01 -7.3562902035998823e+00 4.4987939798884202e+00 0 0 0
79 65 3 -1.7999999999999999e-01 1.7134113300435772e+00 4.4262007638455820e+00 1.6155144078075863e+00 0 0 0
182 156 10 -8.3399999999999996e-01 7.1897204608736907e+00 -1.2463707674967142e+00 5.4144244551449789e+00 0 0 0
210 166 10 -8.3399999999999996e-01 6.6837331581215134e+00 -4.4982968550126747e+00 5.7640156682361088e+00 0 0 0
212 166 9 4.1699999999999998e-01 7.2828733196182105e+00 -4.4365651426408599e+00 6.5079598401256469e+00 0 0 0
183 156 9 4.1699999999999998e-01 7.9767205458136257e+00 -1.0538206717734049e+00 4.9047308090735049e+00 0 0 0
167 151 10 -8.3399999999999996e-01 4.6544100448818213e+00 -6.7055962048786180e+00 -6.7084916486780894e+00 0 0 1
268 185 9 4.1699999999999998e-01 2.8156533158672810e+00 -4.6330104383007162e+00 5.6729281698900920e+00 0 1 0
172 152 9 4.1699999999999998e-01 5.1602291129082023e-01 -3.5490950332041669e+00 6.2919392258165523e+00 0 0 0
171 152 9 4.1699999999999998e-01 1.5614321624434238e+00 -2.9665631540862449e+00 5.3647542554462557e+00 0 0 0
204 164 10 -8.3399999999999996e-01 9.2192562116844865e+00 6.3695321427231013e+00 1.1603004724356711e+00 0 -1 0
279 189 10 -8.3399999999999996e-01 7.7297514924250077e+00 2.7967462532858733e+00 -6.0907187045208753e+00 0 0 1
115 133 9 4.1699999999999998e-01 2.8264242922637073e-01 -1.2140649306244369e+00 -1.4359041321122832e+00 0 0 0
81 65 1 8.9999999999999997e-02 1.1054572274713046e+00 4.6741341139889494e+00 7.1927653417914239e-01 0 0 0
259 182 9 4.1699999999999998e-01 9.6785720266192836e+00 4.6718460715461809e+00 -5.2260526038906114e+00 0 0 0
180 155 9 4.1699999999999998e-01 2.1132717422492628e-01 3.2878882884799544e-02 2.6529818623999755e+00 0 0 0
280 189 9 4.1699999999999998e-01 7.7355660689847578e+00 1.8531614513950390e+00 -6.2514878147383461e+00 0 0 1
72 65 1 8.9999999999999997e-02 7.2909919824748282e-01 5.5716661710092978e+00 5.2998429551029957e+00 0 0 0
206 164 9 4.1699999999999998e-01 9.7224443832374732e+00 5.9336087354747544e+00 1.8480545037989335e+00 0 -1 0
170 152 10 -8.3399999999999996e-01 1.4100480145108871e+00 -3.6854786662293288e+00 5.9783301085312175e+00 0 0 0
121 135 9 4.1699999999999998e-01 1.2847352572908732e+00 7.2304793434169516e+00 -7.2997831862181712e+00 0 -1 1
177 154 9 4.1699999999999998e-01 1.4726814069711693e+00 -8.0001053923889676e-01 4.2281517770697254e+00 0 0 -1
178 154 9 4.1699999999999998e-01 2.6695172495728441e+00 -6.0752851682711495e-01 5.1350312863474574e+00 0 0 -1
190 158 9 4.1699999999999998e-01 4.5564399719025550e+00 4.4922037039366254e+00 -7.3226109105845927e+00 0 0 0
84 65 1 8.9999999999999997e-02 2.9015855823631584e+00 2.6679001487926315e+00 2.0843100566246497e+00 0 0 0
153 146 9 4.1699999999999998e-01 4.4894209829514464e-01 -5.7224847179938942e+00 6.3838270511944906e+00 0 0 0
263 183 9 4.1699999999999998e-01 8.4422296546131470e+00 6.9039085365126462e-01 1.1676621340051989e+00 0 0 0
173 153 10 -8.3399999999999996e-01 4.9061487534326673e+00 -1.0622693757869748e+00 3.7584556067506787e+00 0 0 -1
175 153 9 4.1699999999999998e-01 5.1010976050668511e+00 -1.7818719579839515e+00 3.1581232303464026e+00 0 0 -1
73 65 3 -1.7999999999999999e-01 1.6702034810124033e+00 4.0934583082007467e+00 4.0657602407611604e+00 0 0 0
174 153 9 4.1699999999999998e-01 3.9983307063085269e+00 -8.2802074676986015e-01 3.5655153660657022e+00 0 0 -1
176 154 10 -8.3399999999999996e-01 2.2432522354473337e+00 -1.2527431492675880e+00 4.5709138561756664e+00 0 0 -1
77 65 1 8.9999999999999997e-02 5.3130392236282753e-01 5.5649207692276894e+00 3.0390543571523096e+00 0 0 0
274 187 9 4.1699999999999998e-01 5.3207728953715190e+00 6.7587305402364999e+00 3.5926360244084088e+00 0 0 0
146 144 10 -8.3399999999999996e-01 3.9315109457388120e+00 6.4385269355018435e+00 5.5557880737925958e+00 0 -1 -1
147 144 9 4.1699999999999998e-01 3.3724495515050270e+00 6.7388858030262400e+00 6.2723540480763322e+00 0 -1 -1
148 144 9 4.1699999999999998e-01 3.3237774818926331e+00 6.2459428308069072e+00 4.8417829269873147e+00 0 -1 -1
75 65 1 8.9999999999999997e-02 2.6812459237932043e+00 4.5530251891300431e+00 4.0355509649549539e+00 0 0 0
74 65 1 8.9999999999999997e-02 1.9198493363762774e+00 3.0108707814669358e+00 4.0672583774136459e+00 0 0 0
90 65 1 8.9999999999999997e-02 4.2331557649806770e+00 1.5847416024893139e+00 -1.1589235442245769e+00 0 0 0