LAMMPS data file via write_data, version 16 Mar 2018, timestep = 2500

714 atoms
12 atom types
403 bonds
8 bond types
260 angles
13 angle types
132 dihedrals
18 dihedral types

-1.9725386000000000e+01 1.9725386000000000e+01 xlo xhi
-7.3970199000000001e+00 7.3970199000000001e+00 ylo yhi
-7.3970199000000001e+00 7.3970199000000001e+00 zlo zhi

Masses

1 1.008
2 1.008
3 12.011
4 12.011
5 15.9994
6 15.9994
7 32.06
8 196.966
9 1.008
10 15.9994
11 35.45
12 22.9898

Pair Coeffs # lj/charmmfsw/coul/long

1 0.028 2.38761 0.028 2.38761
2 0.024 2.38761 0.024 2.38761
3 0.056 3.58141 0.01 3.38542
4 0.078 3.63487 0.01 3.38542
5 0.1 2.93997 0.1 2.93997
6 0.12 3.02906 0.12 3.02906
7 0.47 3.74177 0.47 3.74177
8 5.29 2.62904 5.29 2.62904
9 0.046 0.400014 0.046 0.400014
10 0.1521 3.15057 0.1521 3.15057
11 0.15 4.04468 0.15 4.04468
12 0.0469 2.42993 0.0469 2.42993

Bond Coeffs # harmonic

1 222.5 1.53
2 222.5 1.528
3 309 1.111
4 340 1.43
5 322 1.111
6 450 0.9572
7 540 1.448
8 250 1.575

Angle Coeffs # charmm

1 58.35 113.6 11.16 2.561
2 58 115 8 2.561
3 26.5 110.1 22.53 2.179
4 75.7 110.1 0 0
5 34.6 110.1 22.53 2.179
6 15 109 27 1.9
7 34.6 110.1 22.53 2.179
8 35.5 109 5.4 1.802
9 60 109.5 0 0
10 35.5 108.4 5.4 1.802
11 55 104.52 0 0
12 130 109.47 35 2.45
13 85 98 0 0

Dihedral Coeffs # charmmfsw

1 0.101 2 0 1
2 0.142 3 180 0
3 0.074 4 0 0
4 0.097 5 0 0
5 0.162 2 0 1
6 0.047 3 180 0
7 0.105 4 0 0
8 0.177 5 0 0
9 0.19 3 0 1
10 0 3 0 1
11 0.16 3 0 1
12 0 3 0 1
13 0 3 0 1
14 0.19 3 0 1
15 0.19 3 0 1
16 0.19 3 0 1
17 0.16 3 0 1
18 0 3 0 1

Atoms # full

1 1 8 0.0000000000000000e+00 -1.2863564797489367e+01 -5.8535149238828454e+00 -6.7799967738298212e+00 0 0 0
2 2 8 0.0000000000000000e+00 -1.2807806419727699e+01 -4.0802322248365721e+00 -4.4705219551493300e+00 0 0 0
5 5 8 0.0000000000000000e+00 -1.3302440670175780e+01 -6.7318626545141687e+00 -3.4770942607321440e+00 0 0 0
6 6 8 0.0000000000000000e+00 -1.3436907984593775e+01 -4.6192020861593903e+00 -1.5860641952671370e+00 0 0 0
9 9 8 0.0000000000000000e+00 -1.4398020351749263e+01 -6.9289000791669855e+00 -6.7070817564243393e-02 0 0 0
18 18 8 0.0000000000000000e+00 -1.2646021508271474e+01 -1.1784476296225384e+00 -5.2817686474372607e+00 0 0 0
21 21 8 0.0000000000000000e+00 -1.4754485810044484e+01 -2.2498120591624153e+00 -3.3405047740683180e+00 0 0 0
214 273 9 4.1699999999999998e-01 -1.6487265391447078e+01 -4.0509913587385267e+00 -6.5746918323656338e+00 0 0 0
224 276 9 4.1699999999999998e-01 -1.8764578788880087e+01 -5.7189544381302160e-01 -3.4551019757715484e+00 0 0 0
690 432 9 4.1699999999999998e-01 -1.9311525308334261e+01 -7.2638989481642380e+00 -3.1206825726754541e+00 1 1 0
248 284 9 4.1699999999999998e-01 -1.6846741766912675e+01 -7.0147472037893657e+00 -2.7824725717834307e+00 0 1 0
23 23 8 0.0000000000000000e+00 -1.2070292786954388e+01 -1.7684533897294998e+00 -2.5560159701959919e+00 0 0 0
253 286 9 4.1699999999999998e-01 -1.8377695913329354e+01 -5.2418387727229376e+00 -6.1693937974035782e+00 0 1 0
239 281 9 4.1699999999999998e-01 -1.6546536494099747e+01 -1.4327430090795938e+00 -5.6500703847136329e+00 0 0 1
177 261 10 -8.3399999999999996e-01 -1.5931233856622104e+01 -5.5743350906004929e+00 -3.2060878394141259e+00 0 0 0
178 261 9 4.1699999999999998e-01 -1.5235684918092236e+01 -5.6300718236038154e+00 -3.8613259466297509e+00 0 0 0
179 261 9 4.1699999999999998e-01 -1.6462900127065556e+01 -4.8282166122069663e+00 -3.4833463867452208e+00 0 0 0
221 275 9 4.1699999999999998e-01 -1.6996597673748091e+01 -1.5877996240237344e+00 -2.2842706905759256e+00 0 0 0
25 25 8 0.0000000000000000e+00 -1.4123925553741008e+01 -2.1178442352816447e+00 -7.0579538340785963e-01 0 0 0
220 275 9 4.1699999999999998e-01 -1.6756129724297768e+01 -2.5552019646911126e+00 -1.1448820585879982e+00 0 0 0
689 432 9 4.1699999999999998e-01 -1.9546481435892684e+01 -6.1360584656168182e+00 -4.1028577499399619e+00 1 1 0
238 281 9 4.1699999999999998e-01 -1.5437841593914712e+01 -5.2496497233019113e-01 -6.1385692638764038e+00 0 0 1
187 264 9 4.1699999999999998e-01 -1.6869771258031861e+01 -4.9021905605556277e+00 -2.2941385430905673e-01 0 0 0
186 264 10 -8.3399999999999996e-01 -1.6450394020644545e+01 -4.2183192664745945e+00 -7.5159776933055156e-01 0 0 0
172 259 9 4.1699999999999998e-01 -1.5514353922620131e+01 -6.9956009040511020e+00 -6.6269128219780633e+00 0 0 0
188 264 9 4.1699999999999998e-01 -1.6062262744937929e+01 -4.6853882595118952e+00 -1.4914848193053802e+00 0 0 0
213 273 10 -8.3399999999999996e-01 -1.5937660455361183e+01 -4.0850707832886446e+00 -5.7917454277524607e+00 0 0 0
222 276 10 -8.3399999999999996e-01 -1.8187788737336664e+01 -1.1312245969361638e+00 -3.9753876840196694e+00 0 0 0
219 275 10 -8.3399999999999996e-01 -1.7009929769311626e+01 -1.6508625336514293e+00 -1.3292427985299784e+00 0 0 0
215 273 9 4.1699999999999998e-01 -1.5670590119857977e+01 -3.1774608628950620e+00 -5.6463159703277004e+00 0 0 0
223 276 9 4.1699999999999998e-01 -1.8775629591455125e+01 -1.7633434753208208e+00 -4.3890317419162876e+00 0 0 0
195 267 10 -8.3399999999999996e-01 -1.9145790981322577e+01 -6.8587052134207545e+00 -5.7467941742459749e-01 0 0 0
237 281 10 -8.3399999999999996e-01 -1.5834795677102541e+01 -1.3830303739789767e+00 -6.2881815230422431e+00 0 0 1
173 259 9 4.1699999999999998e-01 -1.6112998539804334e+01 -6.0648427921946668e+00 -5.5938543473944593e+00 0 0 0
171 259 10 -8.3399999999999996e-01 -1.5645816714609726e+01 -6.8954029942610271e+00 -5.6840926479313989e+00 0 0 0
252 286 10 -8.3399999999999996e-01 -1.8806730258429901e+01 -4.9912427609886443e+00 -5.3512471499966949e+00 0 1 0
17 17 8 0.0000000000000000e+00 -1.2678188058365073e+01 -3.1291253708078859e+00 -7.3126974952639161e+00 0 0 0
254 286 9 4.1699999999999998e-01 -1.9098050410946385e+01 -4.0914748582112832e+00 -5.4988351454790436e+00 0 1 0
196 267 9 4.1699999999999998e-01 -1.8542740325551300e+01 -7.3105523191426736e+00 -1.1649309122825979e+00 0 0 0
190 265 9 4.1699999999999998e-01 -1.7108971626696789e+01 -6.6504066024137405e+00 3.2811368889906531e+00 0 0 0
10 10 8 0.0000000000000000e+00 -1.4097208203899223e+01 -4.4271223801929942e+00 1.2329250209242104e+00 0 0 0
13 13 8 0.0000000000000000e+00 -1.3379768966456488e+01 -5.6447147420293380e+00 3.6384965288232878e+00 0 0 0
14 14 8 0.0000000000000000e+00 -1.4553787711650797e+01 -4.8808632436883777e+00 6.1222462123513557e+00 0 0 0
227 277 9 4.1699999999999998e-01 -1.9163248152347837e+01 -2.7999923502207236e+00 1.9394058826722568e-01 0 0 0
26 26 8 0.0000000000000000e+00 -1.3292441295598252e+01 -1.7098207232237532e+00 1.8994205082857774e+00 0 0 0
29 29 8 0.0000000000000000e+00 -1.3408528183110773e+01 -2.8132892403305982e+00 4.6134216449669063e+00 0 0 0
30 30 8 0.0000000000000000e+00 -1.2913837620276418e+01 -4.8975240467378728e-01 6.4369102309158430e+00 0 0 0
236 280 9 4.1699999999999998e-01 -1.6957061123856285e+01 -1.4347716036726810e+00 1.4162678584579123e+00 0 0 0
191 265 9 4.1699999999999998e-01 -1.6136754249191636e+01 -5.5997492131092743e+00 3.7738927996440874e+00 0 0 0
241 282 9 4.1699999999999998e-01 -1.6377737302210786e+01 -1.4095579651753902e+00 5.7125235301449564e+00 0 0 0
240 282 10 -8.3399999999999996e-01 -1.6134324133445265e+01 -2.2648175415443856e+00 6.0668026664454846e+00 0 0 0
234 280 10 -8.3399999999999996e-01 -1.6400624507562608e+01 -2.1939694902668485e+00 1.5901324761606823e+00 0 0 0
175 260 9 4.1699999999999998e-01 -1.7303590206798457e+01 -5.9709064785044514e+00 6.5815712579352796e+00 0 0 -1
189 265 10 -8.3399999999999996e-01 -1.6238038590036133e+01 -6.5452195773851995e+00 3.6640774423835594e+00 0 0 0
633 413 9 4.1699999999999998e-01 -1.9506659295224420e+01 -3.9218044736892095e+00 4.1403302410008962e+00 1 0 0
209 271 9 4.1699999999999998e-01 -1.8561889140757931e+01 -1.6188858139127293e+00 4.2213602943366677e+00 0 0 -1
198 268 10 -8.3399999999999996e-01 -1.5898081617314386e+01 -3.8705675051733892e+00 3.6840052905307354e+00 0 0 0
199 268 9 4.1699999999999998e-01 -1.6097948576203002e+01 -3.3754172588934992e+00 2.8895796570306826e+00 0 0 0
200 268 9 4.1699999999999998e-01 -1.6213364012510343e+01 -3.3163503415610922e+00 4.3979186405231330e+00 0 0 0
207 271 10 -8.3399999999999996e-01 -1.9352511875233525e+01 -2.1271367559587238e+00 4.0401734357032062e+00 0 0 -1
174 260 10 -8.3399999999999996e-01 -1.7780073639062213e+01 -5.2016853216401238e+00 6.8938132316177452e+00 0 0 -1
233 279 9 4.1699999999999998e-01 -1.8606073013936360e+01 -5.8527965018198795e+00 2.9370462673362656e+00 0 0 0
176 260 9 4.1699999999999998e-01 -1.7925540446903796e+01 -4.6743216371307810e+00 6.1083452412496877e+00 0 0 -1
228 278 10 -8.3399999999999996e-01 -1.8354808391332000e+01 -3.3907692687233754e-01 1.0248847207248635e+00 0 0 0
235 280 9 4.1699999999999998e-01 -1.5836494580011324e+01 -2.2595364189605434e+00 8.1961941794404525e-01 0 0 0
242 282 9 4.1699999999999998e-01 -1.6060566956344875e+01 -2.1215679122194890e+00 7.0103449695005526e+00 0 0 0
631 413 10 -8.3399999999999996e-01 -1.9211857410241855e+01 -4.8107828825680770e+00 4.3379184234039050e+00 1 0 0
230 278 9 4.1699999999999998e-01 -1.8359028538094922e+01 -5.5415990794763637e-01 9.2171722481289561e-02 0 0 0
231 279 10 -8.3399999999999996e-01 -1.8514121711123440e+01 -6.5879260876183725e+00 2.3309421201440057e+00 0 0 0
232 279 9 4.1699999999999998e-01 -1.9332932982901831e+01 -7.0757418033673138e+00 2.4193796838793573e+00 0 0 0
208 271 9 4.1699999999999998e-01 -1.9634450957720045e+01 -1.8318898768571781e+00 3.1743953414767114e+00 0 0 -1
197 267 9 4.1699999999999998e-01 -1.8647369482759562e+01 -6.7415908893599621e+00 2.3408031622506351e-01 0 0 0
203 269 9 4.1699999999999998e-01 -1.6238884301133290e+01 -7.3732583446271454e+00 5.4628635892525361e+00 0 0 0
243 283 10 -8.3399999999999996e-01 -1.6089518563119512e+01 5.2650805091921091e+00 -5.4855890488058456e+00 0 0 0
34 34 8 0.0000000000000000e+00 -1.3492446728285197e+01 3.6654475514801339e+00 -4.8861229832464614e+00 0 0 0
257 287 9 4.1699999999999998e-01 -1.7011591246104622e+01 4.5612605628017305e-02 -1.7773712523416401e+00 0 0 0
38 38 8 0.0000000000000000e+00 -1.2313969577535671e+01 3.4826874024801167e+00 -2.3295459101715572e+00 0 0 0
263 289 9 4.1699999999999998e-01 -1.7183510190061181e+01 2.0254697274238334e+00 -5.7667474706842296e-02 0 0 0
50 50 8 0.0000000000000000e+00 -1.2955512565147885e+01 6.3447237771457319e+00 -5.8982460229239617e+00 0 0 0
53 53 8 0.0000000000000000e+00 -1.4324952009487086e+01 5.4291811488233925e+00 -2.8277419649892011e+00 0 0 0
256 287 9 4.1699999999999998e-01 -1.7170683879014490e+01 1.2266930431978211e+00 -2.7109902740905945e+00 0 0 0
57 57 8 0.0000000000000000e+00 -1.4711792191989192e+01 2.8811036937583197e+00 -1.0705740574748210e+00 0 0 0
710 439 9 4.1699999999999998e-01 -1.7362987169597631e+01 2.1184540788028521e+00 -5.8908131439638511e+00 1 0 1
259 288 9 4.1699999999999998e-01 -1.8489595098676837e+01 3.6063698141796730e+00 -1.5854794450033090e+00 0 0 0
184 263 9 4.1699999999999998e-01 -1.6624824166596444e+01 4.8642290512824564e+00 -1.0425460405078528e+00 0 -1 0
54 54 8 0.0000000000000000e+00 -1.3333379686608952e+01 5.2439828412717144e+00 -2.6179046671823220e-01 0 0 0
210 272 10 -8.3399999999999996e-01 -1.4866764156205411e+01 1.0022632079199134e+00 -5.5415039921006892e+00 0 0 0
709 439 10 -8.3399999999999996e-01 -1.7205655832319032e+01 1.9730090820542960e+00 -6.8237249626151755e+00 1 0 1
679 429 10 -8.3399999999999996e-01 -1.9191035522689489e+01 4.3064359353163422e+00 -5.8250693583819979e+00 1 0 0
711 439 9 4.1699999999999998e-01 -1.6371836782777205e+01 1.5040508791100844e+00 -6.8562277137150707e+00 1 0 1
258 288 10 -8.3399999999999996e-01 -1.7982544508542400e+01 4.0537722586690554e+00 -2.2629472853769013e+00 0 0 0
245 283 9 4.1699999999999998e-01 -1.7026002267553206e+01 5.4413978960949443e+00 -5.5758268246910863e+00 0 0 0
28 28 8 0.0000000000000000e+00 -1.2025742790566863e+01 1.6523080778455793e-01 -3.9157256973539811e-01 0 0 0
255 287 10 -8.3399999999999996e-01 -1.7115894349732688e+01 9.9709460350506673e-01 -1.7833482534596470e+00 0 0 0
183 263 10 -8.3399999999999996e-01 -1.6207114511888513e+01 5.1104279334663056e+00 -2.1723586948969653e-01 0 -1 0
33 33 8 0.0000000000000000e+00 -1.2213696245128505e+01 1.8982062130534862e+00 -7.0963030907090108e+00 0 0 0
249 285 10 -8.3399999999999996e-01 -1.6355090136265282e+01 2.8267006129424832e+00 -4.2146196179395785e+00 0 0 0
250 285 9 4.1699999999999998e-01 -1.6785422639317314e+01 3.2438607100632582e+00 -3.4682793825442890e+00 0 0 0
251 285 9 4.1699999999999998e-01 -1.6176545945732549e+01 3.5453613058423232e+00 -4.8211513386910871e+00 0 0 0
212 272 9 4.1699999999999998e-01 -1.4017647732274870e+01 1.4178512368435510e+00 -5.3914361871826753e+00 0 0 0
681 429 9 4.1699999999999998e-01 -1.9466706616458584e+01 3.4679116582063849e+00 -5.4547797303854582e+00 1 0 0
211 272 9 4.1699999999999998e-01 -1.5453972656199207e+01 1.4223499298051261e+00 -4.9130568846675429e+00 0 0 0
247 284 9 4.1699999999999998e-01 -1.6952312090039729e+01 6.2691725204910762e+00 -2.7654624345687284e+00 0 0 0
244 283 9 4.1699999999999998e-01 -1.5688236170039799e+01 6.1310207198847575e+00 -5.4124292593292251e+00 0 0 0
185 263 9 4.1699999999999998e-01 -1.5946865707288351e+01 6.0229672064596755e+00 -3.4283564414650558e-01 0 -1 0
22 22 8 0.0000000000000000e+00 -1.4008744358873313e+01 4.1359467064450312e-01 -2.4782102832802457e+00 0 0 0
260 288 9 4.1699999999999998e-01 -1.8619400530002824e+01 4.2473972713083530e+00 -2.9508108627698579e+00 0 0 0
37 37 8 0.0000000000000000e+00 -1.1882839484167345e+01 1.3416090289403433e+00 -4.2460645851342544e+00 0 0 0
246 284 10 -8.3399999999999996e-01 -1.7356557519035164e+01 7.0602919960663426e+00 -2.4091646803315796e+00 0 0 0
614 407 9 4.1699999999999998e-01 -1.9576349222723181e+01 5.2275919001659077e-01 -1.6802071347602048e+00 1 0 0
647 418 9 4.1699999999999998e-01 -1.8619544232127478e+01 1.7958402798162848e-01 -6.8991749404428875e+00 1 0 0
646 418 10 -8.3399999999999996e-01 -1.9525680122399130e+01 8.1234652245317243e-02 -6.6068089277233080e+00 1 0 0
697 435 10 -8.3399999999999996e-01 -1.9711792093801581e+01 2.5372843258397668e+00 -7.2889330667433294e-01 1 0 0
648 418 9 4.1699999999999998e-01 -1.9596314583783244e+01 6.5785143381582434e-01 -5.8460482720789457e+00 1 0 0
266 290 9 4.1699999999999998e-01 -1.8601421886018009e+01 2.6675986812725156e+00 1.7697942305967398e+00 0 0 0
42 42 8 0.0000000000000000e+00 -1.4077011806354816e+01 3.3040021006964824e+00 1.6929214217933839e+00 0 0 0
229 278 9 4.1699999999999998e-01 -1.7935246614763980e+01 5.2002644776082663e-01 1.0711650888067095e+00 0 0 0
46 46 8 0.0000000000000000e+00 -1.4680015533516560e+01 1.8015302615676918e+00 6.0065306632414579e+00 0 0 0
713 440 9 4.1699999999999998e-01 -1.8793347481881550e+01 2.4430551301333132e+00 6.4197160284315586e+00 1 0 0
58 58 8 0.0000000000000000e+00 -1.3462626813513870e+01 6.3698484266707247e+00 2.3613821160602293e+00 0 0 0
61 61 8 0.0000000000000000e+00 -1.3979787135235956e+01 4.1216365222315012e+00 4.4185280066201384e+00 0 0 0
261 289 10 -8.3399999999999996e-01 -1.7152326108446506e+01 2.5130345408397750e+00 7.6546072734048132e-01 0 0 0
272 292 9 4.1699999999999998e-01 -1.6354838900628639e+01 5.4664581402120875e+00 1.7576694305083693e+00 0 0 0
277 294 9 4.1699999999999998e-01 -1.7184398890156562e+01 3.9037471009863305e+00 7.3163296844922296e+00 0 0 0
48 48 8 0.0000000000000000e+00 -1.2110970303837174e+01 1.9491936051612178e+00 4.8256915245457019e+00 0 0 0
275 293 9 4.1699999999999998e-01 -1.6546721835576172e+01 3.7790525423994343e+00 3.5963295192982812e+00 0 0 0
265 290 9 4.1699999999999998e-01 -1.9436988330361260e+01 3.3273219613722214e+00 2.8461257766457986e+00 0 0 0
204 270 10 -8.3399999999999996e-01 -1.8942280788721021e+01 5.1743640109877669e+00 4.7876444323445604e+00 0 -1 0
264 290 10 -8.3399999999999996e-01 -1.9507482698115922e+01 2.8115307355111105e+00 2.0428686441311563e+00 0 0 0
202 269 9 4.1699999999999998e-01 -1.6231773782105705e+01 6.2033956019394951e+00 6.3627638582096981e+00 0 -1 0
269 291 9 4.1699999999999998e-01 -1.7973142401136712e+01 6.9292753927928341e-01 4.7562441129912134e+00 0 0 0
205 270 9 4.1699999999999998e-01 -1.8157970605469909e+01 5.4195620822244406e+00 4.2967578463584628e+00 0 -1 0
278 294 9 4.1699999999999998e-01 -1.6816176768350434e+01 3.5009765564037565e+00 5.9042090736124484e+00 0 0 0
43 43 8 0.0000000000000000e+00 -1.2171988205278545e+01 1.2257556316421985e+00 2.1490409227760248e+00 0 0 0
712 440 10 -8.3399999999999996e-01 -1.9138508939165281e+01 1.9747083175009519e+00 5.6596193581845400e+00 1 0 0
62 62 8 0.0000000000000000e+00 -1.3311853602589727e+01 7.0694795393094392e+00 5.8025493573080480e+00 0 0 0
49 49 8 0.0000000000000000e+00 -1.3749476099228257e+01 4.2720284629942773e+00 7.2160467730535682e+00 0 0 -1
274 293 9 4.1699999999999998e-01 -1.6566051298402893e+01 2.6432930113842250e+00 2.5955437411020141e+00 0 0 0
268 291 9 4.1699999999999998e-01 -1.6489241632463216e+01 5.0309175447820831e-01 4.5240865295056336e+00 0 0 0
698 435 9 4.1699999999999998e-01 -1.9498525223831280e+01 2.6558587928384361e+00 1.9668180537274912e-01 1 0 0
270 292 10 -8.3399999999999996e-01 -1.6420462680661537e+01 5.3773801921627324e+00 2.7084538425935665e+00 0 0 0
41 41 8 0.0000000000000000e+00 -1.4742585295257269e+01 4.3169279747990924e-01 6.0156571195516417e-01 0 0 0
276 294 10 -8.3399999999999996e-01 -1.7013708377528673e+01 4.2646960900928592e+00 6.4463777433688261e+00 0 0 0
273 293 10 -8.3399999999999996e-01 -1.6568124186782615e+01 2.8240255057035499e+00 3.5355243706920585e+00 0 0 0
271 292 9 4.1699999999999998e-01 -1.5968671848669747e+01 6.1475323584677923e+00 3.0533970917182245e+00 0 0 0
206 270 9 4.1699999999999998e-01 -1.8665083683651918e+01 5.1849262034270307e+00 5.7037701915888546e+00 0 -1 0
262 289 9 4.1699999999999998e-01 -1.6708067902014509e+01 3.3312101511390759e+00 5.4307537334685896e-01 0 0 0
45 45 8 0.0000000000000000e+00 -1.4168388484405648e+01 3.4156185102102839e-02 3.8216555940705259e+00 0 0 0
201 269 10 -8.3399999999999996e-01 -1.6237480519263251e+01 7.1603447050927667e+00 6.3839524223051356e+00 0 -1 0
267 291 10 -8.3399999999999996e-01 -1.7287583247054510e+01 2.4961959614652602e-02 4.7483084223332588e+00 0 0 0
3 3 8 0.0000000000000000e+00 -1.0753420326257880e+01 -6.3830276655845157e+00 -4.7902356452367627e+00 0 0 0
4 4 8 0.0000000000000000e+00 -1.0414726581014975e+01 -4.4765881433885353e+00 -6.7958204547825520e+00 0 0 0
85 85 8 0.0000000000000000e+00 -7.6934123830687975e+00 -2.4418666760563146e+00 -3.5553601065688953e+00 0 0 0
8 8 8 0.0000000000000000e+00 -1.0757951880524699e+01 -4.9351420275301372e+00 -2.2451453163491895e+00 0 0 0
19 19 8 0.0000000000000000e+00 -1.0258671628415799e+01 -3.1285567198392812e+00 -4.3674053464574163e+00 0 0 0
20 20 8 0.0000000000000000e+00 -1.0017736285886652e+01 -1.5333661572145674e+00 -6.5578755672214237e+00 0 0 0
88 88 8 0.0000000000000000e+00 -5.6401464802556811e+00 -3.3595163110010290e-01 -3.0923105767005117e+00 0 0 0
24 24 8 0.0000000000000000e+00 -9.8001750942067840e+00 -4.4725731408148212e-01 -3.7993722300369455e+00 0 0 0
65 65 8 0.0000000000000000e+00 -8.2719218481184136e+00 -6.6260968841017736e+00 -6.7791147240082710e+00 0 0 0
66 66 8 0.0000000000000000e+00 -8.2144413269370400e+00 -5.2128943500125260e+00 -4.2589004618799846e+00 0 0 0
67 67 8 0.0000000000000000e+00 -5.7356457952180069e+00 -5.4060955305481473e+00 -6.0924568831704438e+00 0 0 0
86 86 8 0.0000000000000000e+00 -9.6255733908627903e+00 -2.1784584978488950e+00 -1.3662731963512265e+00 0 0 0
87 87 8 0.0000000000000000e+00 -6.7057388462854668e+00 -2.4848776190162951e+00 -9.1571104447127250e-01 0 0 0
70 70 8 0.0000000000000000e+00 -8.0749628786723662e+00 -4.7381300402470172e+00 -1.5591523961370626e+00 0 0 0
71 71 8 0.0000000000000000e+00 -6.3363684184781404e+00 -6.8811341400060178e+00 -1.7651180895498306e+00 0 0 0
7 7 8 0.0000000000000000e+00 -1.1749187724772687e+01 -7.3794282420555586e+00 -1.1963267861903759e+00 0 0 0
81 81 8 0.0000000000000000e+00 -7.9089171465838284e+00 -3.3398800310662575e+00 -6.3407338781672529e+00 0 0 0
82 82 8 0.0000000000000000e+00 -7.4625686681124517e+00 -6.4126172757403965e-01 -5.6491577610075918e+00 0 0 0
83 83 8 0.0000000000000000e+00 -5.6189883455292655e+00 -4.5009449359814226e+00 -3.1835451426886419e+00 0 0 0
84 84 8 0.0000000000000000e+00 -5.2428068789207130e+00 -2.5657129089376642e+00 -5.4061318745254177e+00 0 0 0
76 76 8 0.0000000000000000e+00 -4.7342024451476084e+00 -4.7016904474744754e+00 -4.9125874292285149e-01 0 0 0
72 72 8 0.0000000000000000e+00 -4.1123570701698879e+00 -6.9490668568962413e+00 -3.8521017323168767e+00 0 0 0
101 101 8 0.0000000000000000e+00 -7.9693003757419625e+00 -1.0959275196822989e-02 -1.5883703099537454e+00 0 0 0
92 92 8 0.0000000000000000e+00 -4.1703356153503073e+00 -1.3544290480173984e+00 -2.6965358903494657e-01 0 0 0
77 77 8 0.0000000000000000e+00 -8.5951528350760711e+00 -7.2556773710289608e+00 5.1293593902837911e+00 0 0 0
94 94 8 0.0000000000000000e+00 -7.8487044890054376e+00 -1.4659531132086956e+00 6.3927714988278384e+00 0 0 0
15 15 8 0.0000000000000000e+00 -1.1277321535295922e+01 -5.4902533197342791e+00 5.3972267667502090e+00 0 0 0
128 128 8 0.0000000000000000e+00 -5.7282747149918460e+00 -7.2726694593795163e+00 3.2417932718837927e+00 0 1 0
27 27 8 0.0000000000000000e+00 -1.0314941095398837e+01 -1.3634938743882721e+00 1.4371620912123215e+00 0 0 0
95 95 8 0.0000000000000000e+00 -5.9958782765894414e+00 -2.0634856219620645e+00 4.1416731220031533e+00 0 0 0
31 31 8 0.0000000000000000e+00 -1.0614062713319470e+01 -2.6405855570654455e+00 5.6825296258075859e+00 0 0 0
32 32 8 0.0000000000000000e+00 -1.1393297864672423e+01 -8.2028897171128989e-01 3.8461165488780913e+00 0 0 0
93 93 8 0.0000000000000000e+00 -8.6871337785592129e+00 -2.6080093593942815e+00 3.6588772844379820e+00 0 0 0
74 74 8 0.0000000000000000e+00 -9.3815871941985822e+00 -5.5071600378632226e+00 3.0618140133287022e+00 0 0 0
75 75 8 0.0000000000000000e+00 -6.8730231813788842e+00 -5.8277990544914635e+00 1.0566304059264084e+00 0 0 0
68 68 8 0.0000000000000000e+00 -5.8973303681867568e+00 -3.5221766527140717e+00 6.5002473059959671e+00 0 0 -1
12 12 8 0.0000000000000000e+00 -1.1668272842572444e+01 -3.4287377530795204e+00 1.3559591487034098e-01 0 0 0
78 78 8 0.0000000000000000e+00 -8.6385419504430594e+00 -4.5324475134160735e+00 5.8921723172375327e+00 0 0 0
79 79 8 0.0000000000000000e+00 -6.1464022288734368e+00 -6.2611602841069462e+00 6.0390662850575376e+00 0 0 0
80 80 8 0.0000000000000000e+00 -6.8287606480362211e+00 -4.8054152764432354e+00 3.7846181480987129e+00 0 0 0
89 89 8 0.0000000000000000e+00 -8.6912741693554132e+00 -3.6777150154875304e+00 1.0125888694076484e+00 0 0 0
90 90 8 0.0000000000000000e+00 -7.4699258437596399e+00 -8.3821951931469141e-01 1.1988995061195087e+00 0 0 0
91 91 8 0.0000000000000000e+00 -5.7859104191878385e+00 -3.1216287247479113e+00 1.6167953238470603e+00 0 0 0
16 16 8 0.0000000000000000e+00 -1.1378709061445164e+01 -3.5846441441425432e+00 2.9187951547418098e+00 0 0 0
96 96 8 0.0000000000000000e+00 -5.0932370424199718e+00 -4.4901321876803381e-02 2.3136288184898737e+00 0 0 0
73 73 8 0.0000000000000000e+00 -9.4098389488108136e+00 -6.5419187203639249e+00 6.9559477991797167e-02 0 0 0
11 11 8 0.0000000000000000e+00 -1.1811969144746840e+01 -6.0098161058257844e+00 1.4135020492096810e+00 0 0 0
35 35 8 0.0000000000000000e+00 -9.6133543598938616e+00 1.2839501657645105e+00 -6.0451700044169838e+00 0 0 0
120 120 8 0.0000000000000000e+00 -6.7143516738760614e+00 7.1702332947752607e+00 -4.3651271068023911e+00 0 0 0
39 39 8 0.0000000000000000e+00 -1.0229590096593769e+01 1.6310399504247082e+00 -1.9174568190418853e+00 0 0 0
40 40 8 0.0000000000000000e+00 -1.0009958124594704e+01 3.5711620930537689e+00 -3.9801129238408253e+00 0 0 0
51 51 8 0.0000000000000000e+00 -1.1031177630351481e+01 4.2385246944698061e+00 -6.4277566012378919e+00 0 0 0
118 118 8 0.0000000000000000e+00 -7.6506710528419504e+00 5.9080021784027732e+00 -3.2086794118677986e-01 0 0 0
55 55 8 0.0000000000000000e+00 -9.9654022112272216e+00 4.7327360644820464e+00 -1.3357655672189088e+00 0 0 0
103 103 8 0.0000000000000000e+00 -5.6330579292537886e+00 9.2807439088425392e-01 -4.1297978304373517e-01 0 0 0
116 116 8 0.0000000000000000e+00 -5.8877289863011226e+00 6.3815198212963660e+00 -6.8514934836159833e+00 0 0 0
98 98 8 0.0000000000000000e+00 -7.8859247759555968e+00 1.6620026999282242e+00 -3.7816817786586765e+00 0 0 0
99 99 8 0.0000000000000000e+00 -5.6109163726846099e+00 1.6778568142370054e+00 -5.5338198923399471e+00 0 0 0
56 56 8 0.0000000000000000e+00 -1.1496270724401992e+01 5.8966964511136668e+00 -3.5897261438398700e+00 0 0 0
117 117 8 0.0000000000000000e+00 -7.6470920268995579e+00 4.8723512874889261e+00 -3.0952726058568643e+00 0 0 0
102 102 8 0.0000000000000000e+00 -7.8532871372415114e+00 2.8432202968494029e+00 -1.1001055718069133e+00 0 0 0
119 119 8 0.0000000000000000e+00 -5.0660951550202595e+00 5.4500483871327763e+00 -2.1865864402369715e+00 0 0 0
104 104 8 0.0000000000000000e+00 -5.5217309024089252e+00 2.6170644123231610e+00 -2.6914838950213231e+00 0 0 0
113 113 8 0.0000000000000000e+00 -7.9151406529521910e+00 3.5683787390034771e+00 -5.9076691388597808e+00 0 0 0
114 114 8 0.0000000000000000e+00 -9.1684911356789485e+00 6.0870032379040566e+00 -5.2347897517658275e+00 0 0 0
115 115 8 0.0000000000000000e+00 -5.3192769484542293e+00 4.4106549377468411e+00 -4.8216566563782477e+00 0 0 0
69 69 8 0.0000000000000000e+00 -9.2106632496686007e+00 7.3685985929279036e+00 -2.5191004989751078e+00 0 -1 0
111 111 8 0.0000000000000000e+00 -5.2830290809683298e+00 6.2528966620792625e-01 5.0641314183494082e+00 0 0 0
126 126 8 0.0000000000000000e+00 -8.4440803673947098e+00 5.4520362159786808e+00 6.9176122405055729e+00 0 0 0
36 36 8 0.0000000000000000e+00 -9.5916385993439661e+00 2.8954224971727984e+00 6.2449670080277047e+00 0 0 -1
127 127 8 0.0000000000000000e+00 -6.3561803113972823e+00 5.6509418620082128e+00 5.1227949923006122e+00 0 0 0
59 59 8 0.0000000000000000e+00 -1.1574272289655367e+01 4.0846427816772666e+00 2.9250156657203616e+00 0 0 0
60 60 8 0.0000000000000000e+00 -1.0871695079935577e+01 5.9647243306422659e+00 1.0339554030981100e+00 0 0 0
63 63 8 0.0000000000000000e+00 -1.1500182428906513e+01 4.8429090741630931e+00 5.7111987886446389e+00 0 0 0
64 64 8 0.0000000000000000e+00 -1.1083286544390395e+01 7.0862273497486674e+00 3.7136191548625357e+00 0 0 0
105 105 8 0.0000000000000000e+00 -9.4561449510466211e+00 1.1422054223291349e+00 7.0273622122534918e-01 0 0 0
106 106 8 0.0000000000000000e+00 -9.6764963109013991e+00 2.1121759063808647e+00 3.4350614353865816e+00 0 0 0
107 107 8 0.0000000000000000e+00 -7.1981783487419575e+00 2.1217366341131356e+00 1.9210090580136951e+00 0 0 0
44 44 8 0.0000000000000000e+00 -1.1500807196178826e+01 3.1215931489975541e+00 2.9325747155373605e-01 0 0 0
47 47 8 0.0000000000000000e+00 -1.0124611965076674e+01 2.3836723257735437e-01 6.0794995644978025e+00 0 0 0
110 110 8 0.0000000000000000e+00 -7.1160678581087167e+00 2.8389794759490159e+00 4.6646388296756749e+00 0 0 0
125 125 8 0.0000000000000000e+00 -9.0918133497822176e+00 4.8073155390849474e+00 4.1573178812488836e+00 0 0 0
112 112 8 0.0000000000000000e+00 -4.7213124751000386e+00 2.7558500264008137e+00 2.9283604209161984e+00 0 0 0
121 121 8 0.0000000000000000e+00 -9.0061740477546444e+00 4.0610087745302756e+00 1.2930928934863035e+00 0 0 0
122 122 8 0.0000000000000000e+00 -8.4874549753670294e+00 6.7577761284000353e+00 2.2544069922929406e+00 0 0 0
123 123 8 0.0000000000000000e+00 -6.5194973852631470e+00 4.8424792477914531e+00 2.4386703591524999e+00 0 0 0
124 124 8 0.0000000000000000e+00 -5.0782864691724923e+00 6.7234422019755753e+00 6.1931145067727944e-01 0 0 0
97 97 8 0.0000000000000000e+00 -7.3011530333569068e+00 1.3276524372518905e+00 7.0669780189736136e+00 0 0 -1
100 100 8 0.0000000000000000e+00 -5.7313005154046710e+00 3.6182200137232390e+00 7.1664946295966567e+00 0 0 -1
52 52 8 0.0000000000000000e+00 -1.0836452393900089e+01 7.1083447825500796e+00 7.1553727042921693e+00 0 0 -1
109 109 8 0.0000000000000000e+00 -7.9970442949485792e+00 1.2748057599574331e-01 3.8054737382150141e+00 0 0 0
108 108 8 0.0000000000000000e+00 -5.5177584326959526e+00 3.8019213605548869e+00 1.1707596222023690e-01 0 0 0
417 341 10 -8.3399999999999996e-01 -5.5420955346663103e-01 -2.2356036523915175e+00 -5.7737736109879831e+00 0 1 0
287 297 9 4.1699999999999998e-01 -3.0417055378714668e+00 -3.6143995646875262e+00 -4.2836639523405218e+00 0 0 0
418 341 9 4.1699999999999998e-01 -1.3005040828564791e+00 -2.3599335111739270e+00 -5.1874131714403182e+00 0 1 0
434 346 9 4.1699999999999998e-01 3.5471778954597446e+00 -4.5714915401788181e+00 -6.2675619155198916e+00 0 1 1
315 307 10 -8.3399999999999996e-01 -9.3543858393625434e-01 -8.7457174771453061e-01 -6.3290692038024066e-01 0 0 0
321 309 10 -8.3399999999999996e-01 -3.7971752767800204e+00 -4.2772347088990698e-01 -7.1576035406906220e+00 0 0 1
285 297 10 -8.3399999999999996e-01 -2.6792533370909530e+00 -4.3024709348625754e+00 -4.8417127875933303e+00 0 0 0
382 329 9 4.1699999999999998e-01 -2.2252853996392457e+00 -4.8985035817376499e+00 -2.9465042290645180e+00 0 0 0
361 322 9 4.1699999999999998e-01 -3.0655785087726466e+00 -6.3326503913089525e+00 -6.2919537973496160e+00 0 0 0
288 298 10 -8.3399999999999996e-01 -3.1780619685685036e+00 -2.6112727015563948e+00 -2.8145874535602489e+00 0 0 0
436 347 9 4.1699999999999998e-01 2.1697278773509449e-01 -4.8579229190706217e+00 -5.9095330741812244e+00 0 1 1
292 299 9 4.1699999999999998e-01 -2.6862486031651902e+00 -6.8612395973972156e+00 -1.6505100072412495e+00 0 0 0
290 298 9 4.1699999999999998e-01 -3.2924891330467552e+00 -2.2913054606635295e+00 -1.9197358393350727e+00 0 0 0
329 311 9 4.1699999999999998e-01 -1.0283917934513648e-01 -6.8846503469774563e+00 -4.5082519577939948e+00 0 1 0
360 322 10 -8.3399999999999996e-01 -2.8609987359323927e+00 -7.2571768950655340e+00 -6.4320600105039674e+00 0 0 0
435 347 10 -8.3399999999999996e-01 -1.0031771549178420e-01 -5.4337279193258503e+00 -5.2138262286548844e+00 0 1 1
286 297 9 4.1699999999999998e-01 -2.9062929436086424e+00 -4.0338962832977074e+00 -5.7319674914136467e+00 0 0 0