LAMMPS data file via write_data, version 16 Mar 2018, timestep = 2500

714 atoms
12 atom types
403 bonds
8 bond types
260 angles
13 angle types
132 dihedrals
18 dihedral types

-1.9725386000000000e+01 1.9725386000000000e+01 xlo xhi
-7.3970199000000001e+00 7.3970199000000001e+00 ylo yhi
-7.3970199000000001e+00 7.3970199000000001e+00 zlo zhi

Masses

1 1.008
2 1.008
3 12.011
4 12.011
5 15.9994
6 15.9994
7 32.06
8 196.966
9 1.008
10 15.9994
11 35.45
12 22.9898

Pair Coeffs # lj/charmmfsw/coul/long

1 0.028 2.38761 0.028 2.38761
2 0.024 2.38761 0.024 2.38761
3 0.056 3.58141 0.01 3.38542
4 0.078 3.63487 0.01 3.38542
5 0.1 2.93997 0.1 2.93997
6 0.12 3.02906 0.12 3.02906
7 0.47 3.74177 0.47 3.74177
8 5.29 2.62904 5.29 2.62904
9 0.046 0.400014 0.046 0.400014
10 0.1521 3.15057 0.1521 3.15057
11 0.15 4.04468 0.15 4.04468
12 0.0469 2.42993 0.0469 2.42993

Bond Coeffs # harmonic

1 222.5 1.53
2 222.5 1.528
3 309 1.111
4 340 1.43
5 322 1.111
6 450 0.9572
7 540 1.448
8 250 1.575

Angle Coeffs # charmm

1 58.35 113.6 11.16 2.561
2 58 115 8 2.561
3 26.5 110.1 22.53 2.179
4 75.7 110.1 0 0
5 34.6 110.1 22.53 2.179
6 15 109 27 1.9
7 34.6 110.1 22.53 2.179
8 35.5 109 5.4 1.802
9 60 109.5 0 0
10 35.5 108.4 5.4 1.802
11 55 104.52 0 0
12 130 109.47 35 2.45
13 85 98 0 0

Dihedral Coeffs # charmmfsw

1 0.101 2 0 1
2 0.142 3 180 0
3 0.074 4 0 0
4 0.097 5 0 0
5 0.162 2 0 1
6 0.047 3 180 0
7 0.105 4 0 0
8 0.177 5 0 0
9 0.19 3 0 1
10 0 3 0 1
11 0.16 3 0 1
12 0 3 0 1
13 0 3 0 1
14 0.19 3 0 1
15 0.19 3 0 1
16 0.19 3 0 1
17 0.16 3 0 1
18 0 3 0 1

Atoms # full

1 1 8 0.0000000000000000e+00 -1.3334536674403312e+01 -7.3437577178105613e+00 -6.0290245662512296e+00 0 0 0
2 2 8 0.0000000000000000e+00 -1.3196325251370006e+01 -4.5569051769990745e+00 -5.2945096897417159e+00 0 0 0
3 3 8 0.0000000000000000e+00 -1.0691399699715047e+01 -6.5063784574470453e+00 -5.0631199981150159e+00 0 0 0
4 4 8 0.0000000000000000e+00 -1.0599777128941151e+01 -4.6508048198090082e+00 -7.0261652685112130e+00 0 0 0
5 5 8 0.0000000000000000e+00 -1.3434320577634635e+01 -6.4666012907889732e+00 -3.2838865694624486e+00 0 0 0
6 6 8 0.0000000000000000e+00 -1.4477855379118274e+01 -5.1945949717213153e+00 -7.9007603736168974e-01 0 0 0
8 8 8 0.0000000000000000e+00 -1.0571213608467671e+01 -5.8447262995524616e+00 -2.1924294954483194e+00 0 0 0
18 18 8 0.0000000000000000e+00 -1.2263857617463104e+01 -1.7955865411815970e+00 -4.7143452111376893e+00 0 0 0
19 19 8 0.0000000000000000e+00 -1.0356275107232660e+01 -3.8644537999011779e+00 -4.2335527771261878e+00 0 0 0
20 20 8 0.0000000000000000e+00 -1.0071739024696614e+01 -1.8522685132782475e+00 -6.4022298379632803e+00 0 0 0
21 21 8 0.0000000000000000e+00 -1.4850478443911662e+01 -2.5324343973081667e+00 -3.3245144844681915e+00 0 0 0
23 23 8 0.0000000000000000e+00 -1.2556759844518325e+01 -3.8187098480969115e+00 -2.4818753208966609e+00 0 0 0
180 262 10 -8.3399999999999996e-01 -1.9223923220466808e+01 -5.8998301261625636e+00 -4.0436996895377746e+00 0 0 0
177 261 10 -8.3399999999999996e-01 -1.6365855349443681e+01 -6.1941879331664547e+00 -5.4408853794603065e+00 0 0 0
178 261 9 4.1699999999999998e-01 -1.6248851368289138e+01 -5.2533345077930393e+00 -5.5725572229478075e+00 0 0 0
179 261 9 4.1699999999999998e-01 -1.6767805399669804e+01 -6.5020449065947217e+00 -6.2532237658064309e+00 0 0 0
260 288 9 4.1699999999999998e-01 -1.6594208811223591e+01 -6.1691502130578098e+00 -2.6022692608912186e+00 0 1 0
183 263 10 -8.3399999999999996e-01 -1.6989229560927530e+01 -4.3241853099969729e+00 -2.3975242404593238e+00 0 0 0
184 263 9 4.1699999999999998e-01 -1.7250428825101338e+01 -3.8938216722758598e+00 -3.2116459883302704e+00 0 0 0
185 263 9 4.1699999999999998e-01 -1.6428239852137146e+01 -3.6853979157894723e+00 -1.9576676348269444e+00 0 0 0
213 273 10 -8.3399999999999996e-01 -1.7537306846752767e+01 -3.5391184811618945e+00 -4.9129263306865090e+00 0 0 0
214 273 9 4.1699999999999998e-01 -1.6967497043131118e+01 -2.9894645680595766e+00 -5.4509127968516111e+00 0 0 0
215 273 9 4.1699999999999998e-01 -1.8392730544896501e+01 -3.1116945956194910e+00 -4.9552663899078677e+00 0 0 0
253 286 9 4.1699999999999998e-01 -1.9395864811185675e+01 5.8675903137426300e+00 -5.5302064211182671e+00 0 0 0
266 290 9 4.1699999999999998e-01 -1.6182547132647063e+01 6.8038515161423927e+00 -1.2231004094053197e+00 0 0 0
51 51 8 0.0000000000000000e+00 -1.1114145315005151e+01 5.5554326674007166e+00 -5.8597517601990736e+00 0 0 0
237 281 10 -8.3399999999999996e-01 -1.5607228152280715e+01 -3.4520752349351067e+00 -6.8704631750954173e+00 0 0 1
238 281 9 4.1699999999999998e-01 -1.4881882879194093e+01 -3.4862758434136274e+00 -6.2468143879339761e+00 0 0 1
53 53 8 0.0000000000000000e+00 -1.4062874852071362e+01 5.8107565230953622e+00 -2.3319244579934999e+00 0 0 0
182 262 9 4.1699999999999998e-01 -1.9039720843279635e+01 -5.6277860543910219e+00 -4.9427510842921869e+00 0 0 0
259 288 9 4.1699999999999998e-01 -1.6233015585444463e+01 -7.0712522565142324e+00 -3.7631525439505267e+00 0 1 0
258 288 10 -8.3399999999999996e-01 -1.6566754881967118e+01 -7.0888374153558367e+00 -2.8661890327990118e+00 0 1 0
86 86 8 0.0000000000000000e+00 -9.9175775466799845e+00 -3.1569521083621694e+00 -1.5826713992348433e+00 0 0 0
222 276 10 -8.3399999999999996e-01 -1.6302022916419592e+01 -6.9640970972931870e-01 -9.9069879105727088e-01 0 0 0
25 25 8 0.0000000000000000e+00 -1.3868638258514320e+01 -2.3473367124690023e+00 -1.3135625158385239e-01 0 0 0
22 22 8 0.0000000000000000e+00 -1.2043594407989019e+01 -1.0231789709595120e+00 -2.0589534888939460e+00 0 0 0
658 422 10 -8.3399999999999996e-01 -1.9229068205449774e+01 -9.1379674544547140e-01 -1.6941054480908542e+00 1 0 0
181 262 9 4.1699999999999998e-01 -1.8369725549444222e+01 -5.8951953658607374e+00 -3.6117753664281951e+00 0 0 0
210 272 10 -8.3399999999999996e-01 -1.5035912957980912e+01 -7.3106140237933914e-01 -5.6359258678625581e+00 0 0 0
212 272 9 4.1699999999999998e-01 -1.5821978404262762e+01 -3.1041339486085645e-01 -5.9843343605094805e+00 0 0 0
223 276 9 4.1699999999999998e-01 -1.5618725533277145e+01 -3.0218006811910403e-01 -1.5328440046724732e+00 0 0 0
660 422 9 4.1699999999999998e-01 -1.9695966114051206e+01 -9.6468165088432672e-02 -1.5202883851835289e+00 1 0 0
56 56 8 0.0000000000000000e+00 -1.1293535422977744e+01 6.0874351650497633e+00 -3.0018078859490402e+00 0 0 0
659 422 9 4.1699999999999998e-01 -1.9373141974854626e+01 -1.4438639030961204e+00 -9.1020271340980363e-01 1 0 0
652 420 10 -8.3399999999999996e-01 -1.9678836176737711e+01 2.1497274522990750e+00 -6.5424567921807295e+00 1 0 0
50 50 8 0.0000000000000000e+00 -1.5437493655290218e+01 5.7115107127869891e+00 -5.0006562091228801e+00 0 0 0
55 55 8 0.0000000000000000e+00 -9.9613111047750600e+00 4.4201730262664629e+00 -9.0504846787778037e-01 0 0 0
7 7 8 0.0000000000000000e+00 -1.2380051980415884e+01 -7.1703709923198380e+00 -5.6536146927945807e-01 0 0 0
687 431 9 4.1699999999999998e-01 -1.9109342002874950e+01 3.7274913870719364e+00 -2.5970532584625214e+00 1 0 0
224 276 9 4.1699999999999998e-01 -1.7122253803378410e+01 -4.0633016627793006e-01 -1.3898318203436206e+00 0 0 0
240 282 10 -8.3399999999999996e-01 -1.7640411483616891e+01 4.8449978191084053e-01 -6.0698126039043991e+00 0 0 1
247 284 9 4.1699999999999998e-01 -1.8044375465689360e+01 5.5609989050116022e+00 -3.3764598591757324e+00 0 0 0
49 49 8 0.0000000000000000e+00 -1.3717930334782729e+01 4.7428275243101101e+00 -7.0179172154968699e+00 0 0 0
30 30 8 0.0000000000000000e+00 -1.2245394077170753e+01 1.5275784395835875e-02 -6.8223498956315032e+00 0 0 1
241 282 9 4.1699999999999998e-01 -1.7896262372636070e+01 -7.5103500932717816e-03 -5.2896211667326893e+00 0 0 1
264 290 10 -8.3399999999999996e-01 -1.6546039151117274e+01 6.2591233047978765e+00 -5.2497643367029179e-01 0 0 0
211 272 9 4.1699999999999998e-01 -1.4951606206034503e+01 -3.8404301298075438e-01 -4.7478366211925316e+00 0 0 0
686 431 9 4.1699999999999998e-01 -1.9287247856518462e+01 2.6664944648906981e+00 -1.5319093173858951e+00 1 0 0
243 283 10 -8.3399999999999996e-01 -1.5990941700720008e+01 2.9498054020366928e+00 -3.6724900657393293e+00 0 0 0
252 286 10 -8.3399999999999996e-01 -1.9402788085939029e+01 6.0511234396930345e+00 -4.5907912090256575e+00 0 0 0
245 283 9 4.1699999999999998e-01 -1.5454352262749358e+01 3.5993360671470880e+00 -4.1268190381940233e+00 0 0 0
255 287 10 -8.3399999999999996e-01 -1.7970336321079333e+01 1.4874320056223345e+00 -4.0844228195197663e-01 0 0 0
246 284 10 -8.3399999999999996e-01 -1.7691656237763311e+01 4.9349467049070661e+00 -2.7440985139789076e+00 0 0 0
244 283 9 4.1699999999999998e-01 -1.6683001458912916e+01 3.4611518775490904e+00 -3.2531903603707639e+00 0 0 0
33 33 8 0.0000000000000000e+00 -1.1811636167935365e+01 2.7811957174420008e+00 -6.3874441608387915e+00 0 0 0
249 285 10 -8.3399999999999996e-01 -1.4703048564089592e+01 5.3427118524120631e-01 -3.0604294682180808e+00 0 0 0
248 284 9 4.1699999999999998e-01 -1.7360513507508095e+01 5.4774929469228484e+00 -2.0284013998238550e+00 0 0 0
251 285 9 4.1699999999999998e-01 -1.3779749164795696e+01 7.8648072206235320e-01 -3.0723141882547917e+00 0 0 0
242 282 9 4.1699999999999998e-01 -1.8257766750238879e+01 1.2151147160244333e+00 -6.1059532900477382e+00 0 0 1
57 57 8 0.0000000000000000e+00 -1.5268495924320161e+01 2.8709105281745635e+00 -7.0458597106014509e-01 0 0 0
34 34 8 0.0000000000000000e+00 -1.3044978200692951e+01 4.2150937137065227e+00 -4.3775677439003466e+00 0 0 0
37 37 8 0.0000000000000000e+00 -1.2044704903917719e+01 1.0800811498316887e+00 -3.9862617941537795e+00 0 0 0
38 38 8 0.0000000000000000e+00 -1.2603655986460423e+01 3.3882887533859454e+00 -1.8233135939019878e+00 0 0 0
39 39 8 0.0000000000000000e+00 -1.0521552753012385e+01 1.4148571928827665e+00 -1.4913860694555714e+00 0 0 0
40 40 8 0.0000000000000000e+00 -1.0262986798800220e+01 3.4590628819192242e+00 -3.6915008508443474e+00 0 0 0
250 285 9 4.1699999999999998e-01 -1.5175538218430608e+01 1.3440823550348595e+00 -3.2532803261802554e+00 0 0 0
217 274 9 4.1699999999999998e-01 -1.9581509788127413e+01 -1.6941564024233982e+00 -3.2511904030602592e+00 0 0 0
615 407 9 4.1699999999999998e-01 -1.9698431233944795e+01 6.1252667867870949e+00 -1.4153991640985926e+00 1 -1 0
254 286 9 4.1699999999999998e-01 -1.9579684395339790e+01 6.9899328275628294e+00 -4.5309782742259728e+00 0 0 0
46 46 8 0.0000000000000000e+00 -1.4363413646168107e+01 1.8260172682239271e+00 -7.3861959968375679e+00 0 0 1
239 281 9 4.1699999999999998e-01 -1.5538552275059685e+01 -2.5854954329740667e+00 -7.2711577006549550e+00 0 0 1
10 10 8 0.0000000000000000e+00 -1.4106791816675152e+01 -4.2858115882303673e+00 1.9950343474453509e+00 0 0 0
11 11 8 0.0000000000000000e+00 -1.2004309600422813e+01 -6.3402594074405245e+00 2.3279894903130698e+00 0 0 0
12 12 8 0.0000000000000000e+00 -1.1761801929217473e+01 -4.4348113553428750e+00 1.2602221477486333e-01 0 0 0
13 13 8 0.0000000000000000e+00 -1.4199512759185636e+01 -6.2436884136615829e+00 4.1470767095861758e+00 0 0 0
14 14 8 0.0000000000000000e+00 -1.3586222647091029e+01 -5.3893446268950980e+00 6.8281283532725885e+00 0 0 0
15 15 8 0.0000000000000000e+00 -1.1440759511185291e+01 -5.4785006583015061e+00 4.9153814940407807e+00 0 0 0
16 16 8 0.0000000000000000e+00 -1.1431543429971404e+01 -3.4867100501100659e+00 2.8282066857239596e+00 0 0 0
187 264 9 4.1699999999999998e-01 -1.6602332891489326e+01 -4.6652965144123346e+00 3.8630249833658556e+00 0 0 0
26 26 8 0.0000000000000000e+00 -1.3371373994864294e+01 -1.5377240798388148e+00 2.4489644389134626e+00 0 0 0
27 27 8 0.0000000000000000e+00 -1.0283310093088190e+01 -1.0211837776946848e+00 3.4065607277238286e+00 0 0 0
29 29 8 0.0000000000000000e+00 -1.3530138881173938e+01 -3.4270227215144033e+00 4.6891052063646272e+00 0 0 0
31 31 8 0.0000000000000000e+00 -1.0532445021750386e+01 -2.8306858546164206e+00 5.5991400240210725e+00 0 0 0
32 32 8 0.0000000000000000e+00 -1.2609804577036172e+01 -8.4719023086349343e-01 5.1640812367723896e+00 0 0 0
198 268 10 -8.3399999999999996e-01 -1.6582422769625385e+01 -4.9433116173074563e+00 5.8753179576777441e+00 0 0 0
199 268 9 4.1699999999999998e-01 -1.7308339265614855e+01 -4.4190676403782430e+00 5.5370175972259181e+00 0 0 0
200 268 9 4.1699999999999998e-01 -1.6185813438712060e+01 -4.3953000923513885e+00 6.5525304827370601e+00 0 0 0
225 277 10 -8.3399999999999996e-01 -1.6700031172022431e+01 -2.0286293386102674e+00 3.5811782193029278e+00 0 0 0
226 277 9 4.1699999999999998e-01 -1.6418444315072602e+01 -2.1365045190122265e+00 2.6727159052346821e+00 0 0 0
227 277 9 4.1699999999999998e-01 -1.7433160973556440e+01 -1.4150153021727925e+00 3.5339364030334313e+00 0 0 0
186 264 10 -8.3399999999999996e-01 -1.6930976859712565e+01 -4.9734726612115674e+00 3.0184816373694159e+00 0 0 0
174 260 10 -8.3399999999999996e-01 -1.5436381652812807e+01 -1.4779639049314224e+00 6.0763454932590379e+00 0 0 -1
271 292 9 4.1699999999999998e-01 -1.6111470441411523e+01 4.3307720388184174e+00 4.1871089307818030e+00 0 0 0
278 294 9 4.1699999999999998e-01 -1.7600560824655847e+01 4.4640541446288173e+00 7.3760651632890974e+00 0 0 0
172 259 9 4.1699999999999998e-01 -1.8131509119934691e+01 -2.7498768082090446e+00 4.6934335092506334e+00 0 0 -1
176 260 9 4.1699999999999998e-01 -1.5801147132265575e+01 -1.6186893908254132e+00 5.2026316306321085e+00 0 0 -1
173 259 9 4.1699999999999998e-01 -1.9405327191065993e+01 -2.7106497333010133e+00 5.5105924152151449e+00 0 0 -1
234 280 10 -8.3399999999999996e-01 -1.7931694566606527e+01 6.2202662613401083e-01 3.5788952789225803e+00 0 0 0
188 264 9 4.1699999999999998e-01 -1.6810741288776526e+01 -4.2295693815821664e+00 2.4282413824266742e+00 0 0 0
52 52 8 0.0000000000000000e+00 -1.0693022063007708e+01 -7.3268619220860876e+00 6.9459043696559490e+00 0 1 -1
190 265 9 4.1699999999999998e-01 -1.7493144489524543e+01 -6.7002877627535975e+00 3.2888243336964491e+00 0 0 0
28 28 8 0.0000000000000000e+00 -1.0996737212693235e+01 -1.5317622973751790e+00 6.0317924406473067e-01 0 0 0
175 260 9 4.1699999999999998e-01 -1.5628287058514180e+01 -5.6076192093851918e-01 6.2716523933060948e+00 0 0 -1
221 275 9 4.1699999999999998e-01 -1.7589921459252416e+01 -2.6521031492755514e+00 7.1790509299636662e-01 0 0 0
64 64 8 0.0000000000000000e+00 -1.0827439242288406e+01 6.5670087030093951e+00 4.0503694473353447e+00 0 0 0
171 259 10 -8.3399999999999996e-01 -1.8741525531253433e+01 -3.3113490573585955e+00 5.1718287593362318e+00 0 0 -1
626 411 9 4.1699999999999998e-01 -1.7461833735377983e+01 -5.9001743117847063e+00 1.5529876447731761e+00 1 0 0
654 420 9 4.1699999999999998e-01 -1.9638384090701393e+01 2.5325765082345773e+00 7.3752140946335603e+00 1 0 -1
219 275 10 -8.3399999999999996e-01 -1.6644461834771096e+01 -2.6629485022267141e+00 8.6696999552113518e-01 0 0 0
277 294 9 4.1699999999999998e-01 -1.6726619656528776e+01 5.4491375825886719e+00 6.6292496338835729e+00 0 0 0
235 280 9 4.1699999999999998e-01 -1.7302811543400637e+01 6.6496554556017462e-01 2.8585520334735937e+00 0 0 0
197 267 9 4.1699999999999998e-01 -1.9511827691234117e+01 3.9191543116590140e+00 9.5209443158659657e-01 0 -1 0
191 265 9 4.1699999999999998e-01 -1.7540575254517655e+01 6.9441620889737488e+00 2.3049089755290000e+00 0 -1 0
710 439 9 4.1699999999999998e-01 -1.8952041742964507e+01 3.7888959915083462e+00 5.3127153025230358e+00 1 0 0
275 293 9 4.1699999999999998e-01 -1.7341514636070983e+01 6.6010663073483400e-01 6.9771890990420866e+00 0 0 0
625 411 10 -8.3399999999999996e-01 -1.7620385782717765e+01 -6.3536333482181098e+00 7.2505629117311476e-01 1 0 0
627 411 9 4.1699999999999998e-01 -1.7250598304019473e+01 -5.7738379951249170e+00 5.9228663524878565e-02 1 0 0
62 62 8 0.0000000000000000e+00 -1.3207514365289988e+01 6.6036556306418746e+00 5.8526841931236779e+00 0 0 0
236 280 9 4.1699999999999998e-01 -1.7457594878567299e+01 9.7322774372972942e-01 4.3326321083564032e+00 0 0 0
263 289 9 4.1699999999999998e-01 -1.7201346948332088e+01 4.4146425723952190e+00 1.9816236292352585e-01 0 0 0
189 265 10 -8.3399999999999996e-01 -1.7518725864060009e+01 7.1380395667396890e+00 3.2420145296057217e+00 0 -1 0
54 54 8 0.0000000000000000e+00 -1.3693564516332788e+01 5.1635765269763949e+00 3.3803543342430070e-01 0 0 0
262 289 9 4.1699999999999998e-01 -1.7107036052601526e+01 3.8179637973911174e+00 1.5863177726163575e+00 0 0 0
229 278 9 4.1699999999999998e-01 -1.5334829171026097e+01 3.8884208673232279e-01 1.4654400693359171e+00 0 0 0
707 438 9 4.1699999999999998e-01 -1.8799167830236041e+01 6.9494649140351692e+00 4.6297935613855881e+00 1 0 0
228 278 10 -8.3399999999999996e-01 -1.6262129310525395e+01 5.7582242228313352e-01 1.6116790448055427e+00 0 0 0
706 438 10 -8.3399999999999996e-01 -1.9631402168410503e+01 6.6051208881309318e+00 4.9539023730538139e+00 1 0 0
230 278 9 4.1699999999999998e-01 -1.6620739360663734e+01 7.1182163734691239e-01 7.3467534595796158e-01 0 0 0
273 293 10 -8.3399999999999996e-01 -1.7159235172259486e+01 1.0632345982440590e+00 6.1283696456371324e+00 0 0 0
261 289 10 -8.3399999999999996e-01 -1.7661235007575485e+01 3.8356957708354562e+00 8.0607336621742698e-01 0 0 0
272 292 9 4.1699999999999998e-01 -1.6766965493691220e+01 5.4850954985780209e+00 3.4592630623853080e+00 0 0 0
63 63 8 0.0000000000000000e+00 -1.1283769239614333e+01 4.5562654858520251e+00 6.0888180745308915e+00 0 0 0
270 292 10 -8.3399999999999996e-01 -1.6556424026360990e+01 4.5556152148221960e+00 3.3699835072018245e+00 0 0 0
274 293 9 4.1699999999999998e-01 -1.7118042691147718e+01 2.0016963640568295e+00 6.3122865932038827e+00 0 0 0
41 41 8 0.0000000000000000e+00 -1.3139359739446540e+01 5.0553503603518668e-01 1.4833518823703729e-01 0 0 0
42 42 8 0.0000000000000000e+00 -1.4127819465178707e+01 2.9013440254909955e+00 2.1859642637624890e+00 0 0 0
43 43 8 0.0000000000000000e+00 -1.2055056988814357e+01 9.8849861283002594e-01 2.8148752408793105e+00 0 0 0
44 44 8 0.0000000000000000e+00 -1.1771124993321511e+01 2.8695068514172628e+00 7.6333752313009606e-01 0 0 0
45 45 8 0.0000000000000000e+00 -1.4687436792333189e+01 9.7501868636268030e-01 4.2558850732898570e+00 0 0 0
9 9 8 0.0000000000000000e+00 -1.4821575228641192e+01 -6.9866623569121016e+00 1.5091084686390253e+00 0 0 0
276 294 10 -8.3399999999999996e-01 -1.6891876796242570e+01 4.5121973335176229e+00 6.7344412268773990e+00 0 0 0
48 48 8 0.0000000000000000e+00 -1.2013270656800866e+01 1.8774610734033501e+00 5.6449279433228092e+00 0 0 0
58 58 8 0.0000000000000000e+00 -1.3508636834507826e+01 5.9083680552299676e+00 3.1736747720004224e+00 0 0 0
59 59 8 0.0000000000000000e+00 -1.1665963704535777e+01 3.8700760858570917e+00 3.3928048553928170e+00 0 0 0
60 60 8 0.0000000000000000e+00 -1.1054529120126535e+01 5.7178835114748878e+00 1.2740012098943498e+00 0 0 0
61 61 8 0.0000000000000000e+00 -1.4074651224640775e+01 3.9426793772349846e+00 5.0726687423017855e+00 0 0 0
202 269 9 4.1699999999999998e-01 -1.8005248828354858e+01 7.2813575511874280e+00 6.5731319929735585e+00 0 -1 0
649 419 10 -8.3399999999999996e-01 -1.9453196158205937e+01 -3.0043563288101032e+00 1.0353291161207841e-01 1 0 0
203 269 9 4.1699999999999998e-01 -1.6765172550943220e+01 -6.7545587435629493e+00 6.1496283726421241e+00 0 0 0
206 270 9 4.1699999999999998e-01 -1.9321625306829986e+01 -4.8145559652994905e+00 6.6096190773123249e+00 0 0 0
208 271 9 4.1699999999999998e-01 -1.9087889293656556e+01 -5.9286761375266606e-01 6.0474099856812158e+00 0 0 -1
201 269 10 -8.3399999999999996e-01 -1.7054680722010303e+01 7.3000182922774179e+00 6.6840557798917661e+00 0 -1 0
709 439 10 -8.3399999999999996e-01 -1.9646022581353609e+01 3.6563367308094166e+00 5.9585101487097178e+00 1 0 0
47 47 8 0.0000000000000000e+00 -9.9737489843395455e+00 -1.1269333872993405e-01 6.1756080330121694e+00 0 0 0
204 270 10 -8.3399999999999996e-01 -1.9674109781967537e+01 -5.7000106110630453e+00 6.6988248030169153e+00 0 0 0
220 275 9 4.1699999999999998e-01 -1.6298813122055421e+01 -2.0051844323593366e+00 2.6355844126269068e-01 0 0 0
17 17 8 0.0000000000000000e+00 -1.2695685661823228e+01 -2.7512958079545755e+00 7.3580708900252390e+00 0 0 -1
265 290 9 4.1699999999999998e-01 -1.6991861131343459e+01 6.8771975098118592e+00 5.4211887237706938e-02 0 0 0
257 287 9 4.1699999999999998e-01 -1.8642899696813235e+01 1.0246499901330703e+00 9.1281881485554828e-02 0 0 0
256 287 9 4.1699999999999998e-01 -1.7836429119881739e+01 2.3056828315293476e+00 6.9854096251366654e-02 0 0 0
65 65 8 0.0000000000000000e+00 -8.2013290975841944e+00 -6.7143719158597488e+00 -6.6873539500587311e+00 0 0 0
66 66 8 0.0000000000000000e+00 -8.2535943231936635e+00 -5.8602039113576261e+00 -3.9123572994072937e+00 0 0 0
67 67 8 0.0000000000000000e+00 -5.9225077778811750e+00 -5.6939649001996253e+00 -5.5407514504497524e+00 0 0 0
70 70 8 0.0000000000000000e+00 -7.9763676625737272e+00 -5.1246925668974370e+00 -1.0838859772712521e+00 0 0 0
71 71 8 0.0000000000000000e+00 -6.4043498143033837e+00 -7.2672240387764679e+00 -6.6567120554091186e-01 0 0 0
72 72 8 0.0000000000000000e+00 -4.0168987859473475e+00 -6.8678805021331746e+00 -2.0390781955169306e+00 0 0 0
81 81 8 0.0000000000000000e+00 -8.0819233735917493e+00 -3.8675516437104402e+00 -5.9814761245830521e+00 0 0 0
82 82 8 0.0000000000000000e+00 -7.5832719068131151e+00 -1.0135029941682463e+00 -5.4854658706326465e+00 0 0 0
83 83 8 0.0000000000000000e+00 -5.7374713009419018e+00 -4.8790611208405377e+00 -2.8150175858737487e+00 0 0 0
84 84 8 0.0000000000000000e+00 -5.6395873379738752e+00 -2.8694840136196427e+00 -4.8810502468080026e+00 0 0 0
85 85 8 0.0000000000000000e+00 -7.8469220522465530e+00 -3.0493331720034322e+00 -3.2794644876476076e+00 0 0 0
326 310 9 4.1699999999999998e-01 -2.9098222798093571e+00 2.1249110735737267e+00 -6.4459806099364769e+00 0 0 0
87 87 8 0.0000000000000000e+00 -6.9885063000953913e+00 -2.6604895037864491e+00 -5.6379559196278062e-01 0 0 0
88 88 8 0.0000000000000000e+00 -6.3430683514055390e+00 -7.1326005985314600e-01 -2.6881445112791700e+00 0 0 0
100 100 8 0.0000000000000000e+00 -5.8181043507521091e+00 3.1320997639637711e+00 -7.2976185244581790e+00 0 0 0
331 312 9 4.1699999999999998e-01 -2.0285176205213298e+00 2.4106844674072527e+00 -3.5311700431241571e+00 0 0 0
133 129 6 -6.5000000000000002e-01 -9.9454023277720871e-01 -5.4739764318457294e+00 -1.6564927569318091e-01 0 0 0
288 298 10 -8.3399999999999996e-01 -3.8130138680109491e+00 -2.2512315393718403e+00 -2.7274305320624475e+00 0 0 0
289 298 9 4.1699999999999998e-01 -3.1255170329561501e+00 -2.3772571516115697e+00 -2.0734446584428348e+00 0 0 0
290 298 9 4.1699999999999998e-01 -3.8184502310862345e+00 -3.0658898927031486e+00 -3.2299582815238606e+00 0 0 0
292 299 9 4.1699999999999998e-01 -1.0700337738730286e+00 -4.0250318464888100e+00 -2.7018112773475935e+00 0 0 0
306 304 10 -8.3399999999999996e-01 -3.6282880099160120e+00 -4.5301368216282256e-01 -4.7481007346804196e+00 0 0 0
307 304 9 4.1699999999999998e-01 -3.6855968648868882e+00 -1.1991397586675439e+00 -4.1512390868203086e+00 0 0 0
308 304 9 4.1699999999999998e-01 -3.3313756633539935e+00 2.7199000557170644e-01 -4.1981507907725888e+00 0 0 0
369 325 10 -8.3399999999999996e-01 -3.2918800898046090e+00 -4.7878019993460237e+00 -4.5771742345413085e+00 0 0 0
283 296 9 4.1699999999999998e-01 -3.3117604048840801e+00 -1.8926218341090986e+00 -6.2720730688650370e+00 0 0 0
371 325 9 4.1699999999999998e-01 -3.1254466299327746e+00 -4.3295687062519903e+00 -5.4009183460099237e+00 0 0 0
111 111 8 0.0000000000000000e+00 -5.3027004595254876e+00 -1.0333669327108375e+00 -7.1881021123666136e+00 0 0 1
370 325 9 4.1699999999999998e-01 -3.5696497882393601e+00 -5.6646372531787677e+00 -4.8421951728288510e+00 0 0 0
293 299 9 4.1699999999999998e-01 -1.6067321063513718e+00 -4.3638561796108162e+00 -4.0762388670266869e+00 0 0 0
361 322 9 4.1699999999999998e-01 -4.1986583244774800e-01 -4.5724630157200972e+00 -6.7566308333967049e+00 0 0 0
309 305 10 -8.3399999999999996e-01 -3.5765678014140750e-01 -5.4518716561525495e-04 -6.5846509040030821e+00 0 0 0
330 312 10 -8.3399999999999996e-01 -2.2396736041006964e+00 1.6043365371400111e+00 -3.0605865254665132e+00 0 0 0
291 299 10 -8.3399999999999996e-01 -8.4014685262728883e-01 -4.0031497513339867e+00 -3.6307386559826469e+00 0 0 0
136 129 1 8.9999999999999997e-02 -9.9938463411624290e-01 -1.8123316174973900e+00 -1.2736963399738750e+00 0 0 0
332 312 9 4.1699999999999998e-01 -1.4945565396770750e+00 1.4655035397018494e+00 -2.4759855718643466e+00 0 0 0
129 129 7 1.3300000000000001e+00 -1.4495933142435911e+00 -4.1252451747710861e+00 -1.6828709172003073e-01 0 0 0
368 324 9 4.1699999999999998e-01 -1.8596890469375043e+00 7.0429115149436292e+00 -4.6140788384646045e+00 0 -1 0
312 306 10 -8.3399999999999996e-01 -2.8221967912043078e+00 8.4927640739986998e-01 -3.8719812232916584e-01 0 0 0
131 129 6 -6.5000000000000002e-01 -2.0875854332328441e+00 -3.7467748551076543e+00 -1.3712282262984075e+00 0 0 0
324 310 10 -8.3399999999999996e-01 -3.2533226815626759e+00 1.3520688894104120e+00 -6.8942616624930748e+00 0 0 0
366 324 10 -8.3399999999999996e-01 -1.1067957875919938e+00 6.9137835106985852e+00 -4.0372685648320807e+00 0 -1 0
282 296 10 -8.3399999999999996e-01 -3.0105979352046881e+00 -2.7286858509100251e+00 -6.6277857279823360e+00 0 0 0
325 310 9 4.1699999999999998e-01 -3.5011927352354175e+00 7.5536896471039128e-01 -6.1880441963725721e+00 0 0 0
344 316 9 4.1699999999999998e-01 -1.2755157149051164e+00 5.6726973288624096e+00 -8.3780266941765125e-01 0 0 0
103 103 8 0.0000000000000000e+00 -6.2838510614293055e+00 1.4789200520953716e-01 -2.1098717425811434e-02 0 0 0
101 101 8 0.0000000000000000e+00 -8.7506451429813819e+00 -6.7939256146340143e-01 -1.0137010230189074e+00 0 0 0
310 305 9 4.1699999999999998e-01 -9.5782367662795109e-01 2.7380392588213542e-01 -5.8912789991343901e+00 0 0 0
340 315 9 4.1699999999999998e-01 -2.4698951882037044e+00 4.3328476710363448e+00 -5.4339185658888018e+00 0 0 0
333 313 10 -8.3399999999999996e-01 -3.8166122438510617e+00 7.2455827027812365e+00 -5.5187911818545432e+00 0 0 0
337 314 9 4.1699999999999998e-01 -1.5699722779295149e+00 4.9363501870568092e+00 -3.5952016249205183e+00 0 0 0
313 306 9 4.1699999999999998e-01 -2.8447790487192632e+00 1.5381194201953925e+00 -1.0514403336265552e+00 0 0 0
314 306 9 4.1699999999999998e-01 -3.2557457458889667e+00 1.0279354324535052e-01 -8.0075744428844531e-01 0 0 0
342 316 10 -8.3399999999999996e-01 -1.4352549195766107e+00 4.7331101723406865e+00 -7.4894606967761601e-01 0 0 0
336 314 10 -8.3399999999999996e-01 -2.2861047854778196e+00 4.3143990577920537e+00 -3.4665046533948405e+00 0 0 0
334 313 9 4.1699999999999998e-01 -3.4655988032991139e+00 6.9469510375859809e+00 -6.3577436633526663e+00 0 0 0
69 69 8 0.0000000000000000e+00 -8.7477578803540883e+00 6.8014055086267735e+00 -1.9795055350893109e+00 0 -1 0
35 35 8 0.0000000000000000e+00 -9.6951437642502167e+00 1.0169680102434342e+00 -5.6835133845113575e+00 0 0 0
98 98 8 0.0000000000000000e+00 -8.0879336782747124e+00 1.4613524063092080e+00 -3.3585673715115498e+00 0 0 0
99 99 8 0.0000000000000000e+00 -5.9194448455725563e+00 1.2745668367901057e+00 -5.2064726060417188e+00 0 0 0
102 102 8 0.0000000000000000e+00 -8.0237509749292695e+00 2.3304712125537086e+00 -5.5142417085380901e-01 0 0 0
104 104 8 0.0000000000000000e+00 -5.5669067376394068e+00 2.1519593043547571e+00 -2.1803331355935063e+00 0 0 0
113 113 8 0.0000000000000000e+00 -8.0223810241100466e+00 3.4190617207496685e+00 -5.4490581973379957e+00 0 0 0
114 114 8 0.0000000000000000e+00 -8.7471814010808586e+00 6.1167421852974595e+00 -4.6513221751879357e+00 0 0 0
115 115 8 0.0000000000000000e+00 -5.2033569321628486e+00 3.9288641597776177e+00 -4.4870981620429831e+00 0 0 0
116 116 8 0.0000000000000000e+00 -6.3021038568893664e+00 5.8195702860921159e+00 -6.3914719620822433e+00 0 0 0
117 117 8 0.0000000000000000e+00 -7.6927096036042135e+00 4.2542879002574692e+00 -2.6771853916296493e+00 0 0 0
119 119 8 0.0000000000000000e+00 -4.7949564731392975e+00 5.0465541343642775e+00 -1.6745482916370364e+00 0 0 0
120 120 8 0.0000000000000000e+00 -6.2108673512285852e+00 6.6510983351141748e+00 -3.5818407208700007e+00 0 0 0
338 314 9 4.1699999999999998e-01 -2.3444440158211308e+00 4.2087122399128107e+00 -2.5169475334759559e+00 0 0 0
335 313 9 4.1699999999999998e-01 -4.6226067059781482e+00 6.7423760090593188e+00 -5.4030818989825162e+00 0 0 0
391 332 9 4.1699999999999998e-01 -2.6770519794388192e-01 -3.0701304809049947e+00 -5.2951668235460785e+00 0 0 0
339 315 10 -8.3399999999999996e-01 -2.6055311028454970e+00 3.9625490412301301e+00 -6.3061085757745072e+00 0 0 0
341 315 9 4.1699999999999998e-01 -2.7605091720189043e+00 4.7219646026730135e+00 -6.8678051453480595e+00 0 0 0
367 324 9 4.1699999999999998e-01 -7.5843841645394749e-01 -6.9998592701787814e+00 -3.8966268049905062e+00 0 0 0
118 118 8 0.0000000000000000e+00 -7.3753755820058924e+00 5.0842421148685650e+00 -2.0178144001727957e-03 0 0 0
360 322 10 -8.3399999999999996e-01 -2.8843629854768665e-01 -5.4503605971112492e+00 -7.1147576509936394e+00 0 0 0
134 129 3 -2.8000000000000003e-01 -3.6757978438663014e-01 -1.9652863096965667e+00 -3.7272463601250577e-01 0 0 0
130 129 5 -2.8000000000000003e-01 -1.1996330842454732e-01 -3.3014550092935986e+00 -1.0058581141426606e-01 0 0 0
76 76 8 0.0000000000000000e+00 -5.0397798584658346e+00 -4.8083888879464736e+00 -1.9238697408132216e-01 0 0 0
24 24 8 0.0000000000000000e+00 -9.7360247057052103e+00 -8.7144895000722300e-01 -3.6441953365076767e+00 0 0 0
311 305 9 4.1699999999999998e-01 -8.4322675391950652e-01 1.4978473228060143e-01 -7.3957334233896068e+00 0 0 0
73 73 8 0.0000000000000000e+00 -9.7494813627797576e+00 -6.6726175406265060e+00 4.8533422497419731e-01 0 0 0
74 74 8 0.0000000000000000e+00 -9.4239712966291478e+00 -5.6869834047942147e+00 3.0972252140680694e+00 0 0 0
75 75 8 0.0000000000000000e+00 -7.1660460303560125e+00 -5.6590910993600323e+00 1.5179669173967694e+00 0 0 0
78 78 8 0.0000000000000000e+00 -8.4920307738861176e+00 -4.8036672059106120e+00 6.0439524867380037e+00 0 0 0
79 79 8 0.0000000000000000e+00 -5.7296515856759722e+00 -6.8628868420456222e+00 6.4084231518977441e+00 0 0 0
80 80 8 0.0000000000000000e+00 -6.2071752884279237e+00 -4.9572769088086268e+00 4.3737060234428471e+00 0 0 0