LAMMPS data file via write_data, version 16 Mar 2018, timestep = 587

714 atoms
12 atom types
403 bonds
8 bond types
260 angles
13 angle types
132 dihedrals
18 dihedral types

-1.9725386000000000e+01 1.9725386000000000e+01 xlo xhi
-7.3970199000000001e+00 7.3970199000000001e+00 ylo yhi
-7.3970199000000001e+00 7.3970199000000001e+00 zlo zhi

Masses

1 1.008
2 1.008
3 12.011
4 12.011
5 15.9994
6 15.9994
7 32.06
8 196.966
9 1.008
10 15.9994
11 35.45
12 22.9898

Pair Coeffs # lj/charmmfsw/coul/long

1 0.028 2.38761 0.028 2.38761
2 0.024 2.38761 0.024 2.38761
3 0.056 3.58141 0.01 3.38542
4 0.078 3.63487 0.01 3.38542
5 0.1 2.93997 0.1 2.93997
6 0.12 3.02906 0.12 3.02906
7 0.47 3.74177 0.47 3.74177
8 5.29 2.62904 5.29 2.62904
9 0.046 0.400014 0.046 0.400014
10 0.1521 3.15057 0.1521 3.15057
11 0.15 4.04468 0.15 4.04468
12 0.0469 2.42993 0.0469 2.42993

Bond Coeffs # harmonic

1 222.5 1.53
2 222.5 1.528
3 309 1.111
4 340 1.43
5 322 1.111
6 450 0.9572
7 540 1.448
8 250 1.575

Angle Coeffs # charmm

1 58.35 113.6 11.16 2.561
2 58 115 8 2.561
3 26.5 110.1 22.53 2.179
4 75.7 110.1 0 0
5 34.6 110.1 22.53 2.179
6 15 109 27 1.9
7 34.6 110.1 22.53 2.179
8 35.5 109 5.4 1.802
9 60 109.5 0 0
10 35.5 108.4 5.4 1.802
11 55 104.52 0 0
12 130 109.47 35 2.45
13 85 98 0 0

Dihedral Coeffs # charmmfsw

1 0.101 2 0 1
2 0.142 3 180 0
3 0.074 4 0 0
4 0.097 5 0 0
5 0.162 2 0 1
6 0.047 3 180 0
7 0.105 4 0 0
8 0.177 5 0 0
9 0.19 3 0 1
10 0 3 0 1
11 0.16 3 0 1
12 0 3 0 1
13 0 3 0 1
14 0.19 3 0 1
15 0.19 3 0 1
16 0.19 3 0 1
17 0.16 3 0 1
18 0 3 0 1

Atoms # full

1 1 8 0.0000000000000000e+00 -1.3407455620179130e+01 -5.9315976374588368e+00 -5.9459718133998756e+00 0 0 0
2 2 8 0.0000000000000000e+00 -1.2629514199123882e+01 -4.3302371865961407e+00 -3.3274004206954491e+00 0 0 0
3 3 8 0.0000000000000000e+00 -1.1281971410888813e+01 -6.6674345183679318e+00 -4.1975019675597078e+00 0 0 0
4 4 8 0.0000000000000000e+00 -1.0843129516216450e+01 -4.5758932672982437e+00 -6.1335116277081481e+00 0 0 0
5 5 8 0.0000000000000000e+00 -1.4052437039694057e+01 -7.0891772155180188e+00 -3.3945041736578259e+00 0 0 0
6 6 8 0.0000000000000000e+00 -1.4524769700548498e+01 -5.2173303032510345e+00 -1.1792056932612265e+00 0 0 0
7 7 8 0.0000000000000000e+00 -1.2074034583553923e+01 -6.7326400147912668e+00 -1.4559930049226510e+00 0 0 0
8 8 8 0.0000000000000000e+00 -9.9959141743332083e+00 -4.9537942576105918e+00 -1.7356171095832440e+00 0 0 0
17 17 8 0.0000000000000000e+00 -1.3778316901766077e+01 -3.4158772670857460e+00 -7.2240085189997867e+00 0 0 0
18 18 8 0.0000000000000000e+00 -1.2316151765929298e+01 -2.0752254812813677e+00 -5.2041126942704707e+00 0 0 0
19 19 8 0.0000000000000000e+00 -1.0001281764140183e+01 -3.0913135797056381e+00 -3.8640404815960823e+00 0 0 0
20 20 8 0.0000000000000000e+00 -9.7907242101436029e+00 -1.6615238213387848e+00 -6.3957263351173710e+00 0 0 0
21 21 8 0.0000000000000000e+00 -1.4631831663047249e+01 -1.7527911221118295e+00 -3.4307859456623113e+00 0 0 0
22 22 8 0.0000000000000000e+00 -1.3861814043990048e+01 4.6356525474876858e-01 -1.5949431818093338e+00 0 0 0
23 23 8 0.0000000000000000e+00 -1.2053156083453651e+01 -1.6118841879683377e+00 -2.3841503786076514e+00 0 0 0
24 24 8 0.0000000000000000e+00 -1.0110145052422119e+01 -2.7118897130996084e-01 -4.0122923004401674e+00 0 0 0
171 259 10 -8.3399999999999996e-01 -1.5927172279860425e+01 -5.6387768525558322e+00 7.0438427660080869e+00 0 0 -1
172 259 9 4.1699999999999998e-01 -1.6278451277165161e+01 -4.7798472908318264e+00 7.3504321689655701e+00 0 0 -1
173 259 9 4.1699999999999998e-01 -1.6072962181881529e+01 -6.1901926322464513e+00 -6.9603219963045406e+00 0 0 0
174 260 10 -8.3399999999999996e-01 -1.6867649279207026e+01 -3.2212522990293149e+00 -6.7450756652766710e+00 0 0 0
175 260 9 4.1699999999999998e-01 -1.6429393643907705e+01 -2.4203480804955917e+00 -7.1010580144594702e+00 0 0 0
176 260 9 4.1699999999999998e-01 -1.7763748661969089e+01 -2.8542186370309639e+00 -6.6258333190119076e+00 0 0 0
177 261 10 -8.3399999999999996e-01 -1.5623287856409870e+01 -4.3470510472980948e+00 -4.5364090177722280e+00 0 0 0
178 261 9 4.1699999999999998e-01 -1.5921193207973205e+01 -3.9436929884293530e+00 -5.3742502338061557e+00 0 0 0
179 261 9 4.1699999999999998e-01 -1.6071441920884453e+01 -3.7826828875164815e+00 -3.8920296035383752e+00 0 0 0
180 262 10 -8.3399999999999996e-01 -1.7671337439285541e+01 -2.7540749315608299e+00 -3.2836623887884619e+00 0 0 0
181 262 9 4.1699999999999998e-01 -1.7272152125214522e+01 -1.9772085361272873e+00 -3.7357145178615232e+00 0 0 0
130 129 5 -2.8000000000000003e-01 -1.0942095071634899e+00 -2.4266842741408534e+00 1.1799346323443070e+00 0 0 0
183 263 10 -8.3399999999999996e-01 -1.7962435855421116e+01 -6.3880848999290540e+00 -1.3638648275246381e+00 0 0 0
184 263 9 4.1699999999999998e-01 -1.7736810972599269e+01 -5.5171377143148748e+00 -9.7975158471313228e-01 0 0 0
185 263 9 4.1699999999999998e-01 -1.8102994604993960e+01 -6.1386975259498779e+00 -2.3013123483215057e+00 0 0 0
186 264 10 -8.3399999999999996e-01 -1.7147583334462851e+01 -3.7867461555443764e+00 -7.4813499335773581e-01 0 0 0
187 264 9 4.1699999999999998e-01 -1.7152768990770166e+01 -3.5664419061005677e+00 -1.6982723416248235e+00 0 0 0
188 264 9 4.1699999999999998e-01 -1.7171688399012833e+01 -2.8741730963448950e+00 -3.9399372588151882e-01 0 0 0
207 271 10 -8.3399999999999996e-01 -1.8930706159172420e+01 -1.4033761094760537e+00 -6.2247870929114075e+00 0 0 0
208 271 9 4.1699999999999998e-01 -1.8264357580475497e+01 -1.0350374682600056e+00 -5.6085020635812199e+00 0 0 0
354 320 10 -8.3399999999999996e-01 -3.3820397768286177e+00 3.1259491475493162e+00 5.6405444803521725e+00 0 0 0
213 273 10 -8.3399999999999996e-01 -1.7148615166559832e+01 -3.3538655541025936e-01 -4.4483360680581532e+00 0 0 0
214 273 9 4.1699999999999998e-01 -1.6657050802376972e+01 3.1854890206925668e-01 -4.9825392117478238e+00 0 0 0
215 273 9 4.1699999999999998e-01 -1.7697955528376884e+01 2.6971624987181414e-01 -3.9086522973470625e+00 0 0 0
219 275 10 -8.3399999999999996e-01 -1.7387721905129112e+01 -1.0882643712829725e+00 -4.1687236529035077e-01 0 0 0
220 275 9 4.1699999999999998e-01 -1.7085159147807172e+01 -1.7599098245083322e-01 -6.3946561029049320e-01 0 0 0
221 275 9 4.1699999999999998e-01 -1.8221879791471597e+01 -1.0926592737097067e+00 -9.2702805974930036e-01 0 0 0
65 65 8 0.0000000000000000e+00 -8.6008045329938039e+00 -6.3858082651369141e+00 -6.8756834100583681e+00 0 0 0
66 66 8 0.0000000000000000e+00 -8.6510996324080995e+00 -5.6228861432335115e+00 -4.1569062734254372e+00 0 0 0
67 67 8 0.0000000000000000e+00 -6.1627904605904558e+00 -6.3738795682015645e+00 -5.3333131061113077e+00 0 0 0
68 68 8 0.0000000000000000e+00 -5.4444107377076518e+00 -4.5194847376675185e+00 7.3448189903953836e+00 0 0 -1
69 69 8 0.0000000000000000e+00 -9.4765894085814004e+00 7.0121692650867953e+00 -2.2615801499232449e+00 0 -1 0
70 70 8 0.0000000000000000e+00 -7.3743016164096202e+00 -5.9093640143394124e+00 -1.7178800914859282e+00 0 0 0
71 71 8 0.0000000000000000e+00 -5.7397190165237832e+00 6.8941501920411010e+00 -5.1897317748080440e-01 0 -1 0
72 72 8 0.0000000000000000e+00 -4.7653797024026154e+00 -6.0508324896832795e+00 -2.7271069697641601e+00 0 0 0
81 81 8 0.0000000000000000e+00 -7.9554647504517186e+00 -3.7729395483083805e+00 -6.1610105873123073e+00 0 0 0
82 82 8 0.0000000000000000e+00 -7.6220092250954643e+00 -1.4443952494512449e+00 -4.4719155525096221e+00 0 0 0
83 83 8 0.0000000000000000e+00 -5.8181285834983072e+00 -3.7919434958411440e+00 -4.2693096764356824e+00 0 0 0
84 84 8 0.0000000000000000e+00 -5.6591965517462741e+00 -1.8825002984220029e+00 -6.4581083149259255e+00 0 0 0
85 85 8 0.0000000000000000e+00 -7.6986506886667465e+00 -3.2365576211772638e+00 -2.2824692032656531e+00 0 0 0
86 86 8 0.0000000000000000e+00 -9.8553785223633703e+00 -2.1830934387738652e+00 -8.4330151049574675e-01 0 0 0
87 87 8 0.0000000000000000e+00 -6.2047211567179374e+00 -2.3134856833684601e+00 -1.3343139450054625e-01 0 0 0
88 88 8 0.0000000000000000e+00 -5.3981002066918062e+00 -1.3650996435529215e+00 -2.6898936321750431e+00 0 0 0
279 295 10 -8.3399999999999996e-01 -3.2960520578233612e+00 -7.0653970356819231e+00 -6.7140035097474717e+00 0 0 0
280 295 9 4.1699999999999998e-01 -2.8415848203851155e+00 -6.1948675161225326e+00 -6.6822067019968712e+00 0 0 0
281 295 9 4.1699999999999998e-01 -3.3414528549836748e+00 -7.2850290747911650e+00 -5.7599779215255493e+00 0 0 0
282 296 10 -8.3399999999999996e-01 -2.0614475014939355e+00 -4.6481073984618648e+00 -6.9931641247091649e+00 0 0 0
283 296 9 4.1699999999999998e-01 -2.4387385769593699e+00 -4.1665121751275258e+00 7.0386294897399102e+00 0 0 -1
284 296 9 4.1699999999999998e-01 -2.3347775860373137e+00 -4.0570737338668277e+00 -6.2509695475562195e+00 0 0 0
285 297 10 -8.3399999999999996e-01 -1.6066242236639112e+00 -6.1754735008512522e+00 -2.8470204354355939e+00 0 0 0
286 297 9 4.1699999999999998e-01 -1.2122765599127900e+00 -5.3987243831612091e+00 -3.2921764662816764e+00 0 0 0
287 297 9 4.1699999999999998e-01 -1.9934297731022443e+00 -6.6867082778920004e+00 -3.5774645611361513e+00 0 0 0
288 298 10 -8.3399999999999996e-01 -3.0418127299840814e+00 -3.0769903185606395e+00 -5.0335066286510486e+00 0 0 0
289 298 9 4.1699999999999998e-01 -3.1325319665998461e+00 -3.3759994622955012e+00 -4.1124710617192122e+00 0 0 0
290 298 9 4.1699999999999998e-01 -3.0323139501321066e+00 -2.1127957644881512e+00 -4.8746742425449199e+00 0 0 0
291 299 10 -8.3399999999999996e-01 -2.6456553576025397e+00 -6.1954017555692538e+00 -3.9954699885959782e-01 0 0 0
292 299 9 4.1699999999999998e-01 -2.3397461960679555e+00 -6.0469751358361652e+00 -1.3265347949560042e+00 0 0 0
293 299 9 4.1699999999999998e-01 -3.0756940545392428e+00 -5.3501628179349154e+00 -1.9085217945360358e-01 0 0 0
306 304 10 -8.3399999999999996e-01 -2.7114949074533623e+00 -5.4431151471851369e-01 -4.0952337406718042e+00 0 0 0
307 304 9 4.1699999999999998e-01 -2.2219692031403984e+00 -3.4132081596020847e-01 -4.9203337486587468e+00 0 0 0
308 304 9 4.1699999999999998e-01 -2.9781789007622006e+00 3.5771004931874201e-01 -3.8301879626836519e+00 0 0 0
312 306 10 -8.3399999999999996e-01 -2.8026989606903259e+00 -2.9375921292075802e+00 -2.2287300796703171e+00 0 0 0
359 321 9 4.1699999999999998e-01 -4.8192608534399897e+00 5.2896206396208738e+00 -7.3787629028796564e+00 0 0 1
314 306 9 4.1699999999999998e-01 -3.0254349963856542e+00 -2.9739016625684869e+00 -1.2724119307317121e+00 0 0 0
33 33 8 0.0000000000000000e+00 -1.3633650645558060e+01 9.8966344379126514e-01 -6.9832805448667798e+00 0 0 0
34 34 8 0.0000000000000000e+00 -1.3180797819448937e+01 3.1912843148376937e+00 -5.1972370289109708e+00 0 0 0
35 35 8 0.0000000000000000e+00 -1.0832147090369062e+01 1.1825319087019981e+00 -6.4140752273146173e+00 0 0 0
36 36 8 0.0000000000000000e+00 -1.0052014792470535e+01 3.0449969204842211e+00 6.3507293166079011e+00 0 0 -1
37 37 8 0.0000000000000000e+00 -1.2769337844871069e+01 5.7488743420575350e-01 -4.2132614307906691e+00 0 0 0
38 38 8 0.0000000000000000e+00 -1.2801175232242175e+01 2.8872614997498514e+00 -2.4083620056532982e+00 0 0 0
39 39 8 0.0000000000000000e+00 -1.0726126833727292e+01 1.0191897186442904e+00 -1.6601924084060289e+00 0 0 0
40 40 8 0.0000000000000000e+00 -1.0528642016464833e+01 2.6494073151702544e+00 -4.0361243407361576e+00 0 0 0
49 49 8 0.0000000000000000e+00 -1.2892567713684027e+01 3.7659124118366041e+00 6.7966060426459736e+00 0 0 -1
50 50 8 0.0000000000000000e+00 -1.3324585004528508e+01 5.9941159866396232e+00 -5.6299031168760019e+00 0 0 0
51 51 8 0.0000000000000000e+00 -1.0879044580135803e+01 4.5152903628685719e+00 -6.1718611930753626e+00 0 0 0
52 52 8 0.0000000000000000e+00 -1.1160746340379124e+01 7.2721329541290283e+00 -6.9271694117004685e+00 0 0 0
53 53 8 0.0000000000000000e+00 -1.4589820704859918e+01 4.8855606774558842e+00 -3.2762206103285840e+00 0 0 0
54 54 8 0.0000000000000000e+00 -1.3020491639842151e+01 5.3513306227248059e+00 -9.3907836977849679e-01 0 0 0
55 55 8 0.0000000000000000e+00 -1.0449303749024667e+01 3.9278559831478077e+00 -1.3503460765404638e+00 0 0 0
56 56 8 0.0000000000000000e+00 -1.1579413158846471e+01 5.3777554788181474e+00 -3.4786926620221741e+00 0 0 0
210 272 10 -8.3399999999999996e-01 -1.6369800693909585e+01 1.6540647601307956e+00 -6.1699081251412728e+00 0 0 0
211 272 9 4.1699999999999998e-01 -1.6455684317408142e+01 2.2624879304040917e+00 -5.4007901857185665e+00 0 0 0
212 272 9 4.1699999999999998e-01 -1.6564343679530701e+01 2.2900599416412728e+00 -6.8863278438835689e+00 0 0 0
216 274 10 -8.3399999999999996e-01 -1.8864572693703824e+01 1.5112066444037255e+00 -3.3789314673035924e+00 0 0 0
217 274 9 4.1699999999999998e-01 -1.8298137764966310e+01 2.2472064509480849e+00 -3.7108389886636801e+00 0 0 0
358 321 9 4.1699999999999998e-01 -3.5447171115187901e+00 6.0471578105935322e+00 -7.1715778486614594e+00 0 0 1
222 276 10 -8.3399999999999996e-01 -1.7121020171547357e+01 1.4554216094079995e+00 -1.2437942295261564e+00 0 0 0
223 276 9 4.1699999999999998e-01 -1.6774551071252542e+01 2.3623875356242774e+00 -1.2546652075962557e+00 0 0 0
224 276 9 4.1699999999999998e-01 -1.7854656600410991e+01 1.5417416167817521e+00 -1.8787461263265872e+00 0 0 0
243 283 10 -8.3399999999999996e-01 -1.7353160753141360e+01 3.2452198840296829e+00 6.5653755789986823e+00 0 0 -1
244 283 9 4.1699999999999998e-01 -1.7167755989224052e+01 4.2063029588141356e+00 6.6719806854442325e+00 0 0 -1
245 283 9 4.1699999999999998e-01 -1.8324940283262237e+01 3.2410686020314752e+00 6.7210568039337844e+00 0 0 -1
246 284 10 -8.3399999999999996e-01 -1.6343262494915802e+01 5.3667154562478725e+00 -5.8157715545588431e+00 0 0 0
247 284 9 4.1699999999999998e-01 -1.6408569816540670e+01 5.5800363408708460e+00 -6.7653061549430227e+00 0 0 0
248 284 9 4.1699999999999998e-01 -1.6303640299445131e+01 6.2761822589853775e+00 -5.4506313835375853e+00 0 0 0
249 285 10 -8.3399999999999996e-01 -1.7039596692007571e+01 3.3524528854682378e+00 -4.1669681107124132e+00 0 0 0
250 285 9 4.1699999999999998e-01 -1.6788111394196612e+01 4.1323000733402102e+00 -4.7191360200761876e+00 0 0 0
251 285 9 4.1699999999999998e-01 -1.7045933473128166e+01 3.7751486804229386e+00 -3.2767952433519620e+00 0 0 0
252 286 10 -8.3399999999999996e-01 -1.6553185058864042e+01 -6.7757619934402049e+00 -5.2402319761310023e+00 0 1 0
253 286 9 4.1699999999999998e-01 -1.5940753672253267e+01 -6.0849024585052955e+00 -4.9051307877295613e+00 0 1 0
254 286 9 4.1699999999999998e-01 -1.7367078892536117e+01 -6.4766324525131829e+00 -4.7884061638247024e+00 0 1 0
255 287 10 -8.3399999999999996e-01 -1.7168393260892632e+01 4.3232392957158545e+00 -1.6333277473958143e+00 0 0 0
256 287 9 4.1699999999999998e-01 -1.6602913391585943e+01 5.1251614574259579e+00 -1.5477121315203171e+00 0 0 0
257 287 9 4.1699999999999998e-01 -1.7528401884531327e+01 4.3009372590457451e+00 -7.2490164136111601e-01 0 0 0
258 288 10 -8.3399999999999996e-01 -1.5879134569209544e+01 6.6285546436398572e+00 -1.0029619828899787e+00 0 0 0
259 288 9 4.1699999999999998e-01 -1.5182041838010587e+01 7.1769724484022444e+00 -6.3111430697358228e-01 0 0 0
260 288 9 4.1699999999999998e-01 -1.6621841763164412e+01 7.2624053393034558e+00 -1.0775689946340379e+00 0 0 0
97 97 8 0.0000000000000000e+00 -7.7860077840805966e+00 4.6225625852175545e-01 -6.5877641050640259e+00 0 0 0
98 98 8 0.0000000000000000e+00 -7.9335680079661293e+00 1.4865548372430393e+00 -3.8849049050742934e+00 0 0 0
99 99 8 0.0000000000000000e+00 -5.4392468476269036e+00 4.9510862612200152e-01 -4.8974824530764680e+00 0 0 0
100 100 8 0.0000000000000000e+00 -5.6580087700617563e+00 2.3652016724190541e+00 -7.1612136905884674e+00 0 0 0
101 101 8 0.0000000000000000e+00 -7.9914390884863709e+00 -3.7853806069223467e-01 -1.7704909555777479e+00 0 0 0
102 102 8 0.0000000000000000e+00 -8.1483603754061491e+00 2.3911127984727134e+00 -1.0590230889226837e+00 0 0 0
103 103 8 0.0000000000000000e+00 -6.6480089493770169e+00 5.6253889025827630e-01 5.4379376410057589e-01 0 0 0
104 104 8 0.0000000000000000e+00 -5.6530158785865776e+00 1.4738512791802463e+00 -2.0738674241678390e+00 0 0 0
113 113 8 0.0000000000000000e+00 -8.3098635289514196e+00 3.2738801505035617e+00 -6.1723665812704791e+00 0 0 0
114 114 8 0.0000000000000000e+00 -9.1670745948369241e+00 6.3938562803929360e+00 -4.9946537486457041e+00 0 0 0
115 115 8 0.0000000000000000e+00 -5.8365467463004235e+00 3.2993831056392042e+00 -4.5163467767192307e+00 0 0 0
116 116 8 0.0000000000000000e+00 -6.6321998827756445e+00 5.6133867118141199e+00 -5.9386551856949863e+00 0 0 0
117 117 8 0.0000000000000000e+00 -8.3357605901043641e+00 4.2624034521930909e+00 -3.3506779575858983e+00 0 0 0
118 118 8 0.0000000000000000e+00 -8.0124485699242989e+00 5.1831011444636959e+00 -6.7961811084619661e-01 0 0 0
119 119 8 0.0000000000000000e+00 -5.6144208359393408e+00 4.4025379883332469e+00 -1.9901773092264901e+00 0 0 0
120 120 8 0.0000000000000000e+00 -6.8085761634371735e+00 6.6283420373008397e+00 -3.2515281758817070e+00 0 0 0
309 305 10 -8.3399999999999996e-01 -1.4463688760914393e+00 -2.9549754620201572e-02 -6.4887999759876758e+00 0 0 0
310 305 9 4.1699999999999998e-01 -8.4443200323472412e-01 7.4011455067275045e-01 -6.5464878752451492e+00 0 0 0
311 305 9 4.1699999999999998e-01 -1.9553585700245291e+00 8.0160514747242798e-02 -7.3203493199160317e+00 0 0 0
315 307 10 -8.3399999999999996e-01 -2.9376715595549827e+00 2.1141569194654037e+00 -3.4258109283778548e+00 0 0 0
316 307 9 4.1699999999999998e-01 -2.0094300108465761e+00 2.0881597892104757e+00 -3.1153380183382402e+00 0 0 0
317 307 9 4.1699999999999998e-01 -3.3554962243207260e+00 2.4248763072813770e+00 -2.6007325755806669e+00 0 0 0
324 310 10 -8.3399999999999996e-01 -2.4130605824254676e+00 4.2139720858818928e+00 -5.1298838495074319e+00 0 0 0
325 310 9 4.1699999999999998e-01 -2.7404501510825288e+00 3.3884593717426577e+00 -4.7146201498563753e+00 0 0 0
326 310 9 4.1699999999999998e-01 -2.9405340654087389e+00 4.2645557887746319e+00 -5.9545790918432999e+00 0 0 0
209 271 9 4.1699999999999998e-01 -1.9433329184078531e+01 -5.8976613730610017e-01 -6.4470601648031778e+00 0 0 0
357 321 10 -8.3399999999999996e-01 -3.8728178633280526e+00 5.1286846549005647e+00 -7.2929310182382325e+00 0 0 1
329 311 9 4.1699999999999998e-01 -6.0794241272909100e-01 4.4818930993896746e+00 -4.9053257363604086e+00 0 0 0
330 312 10 -8.3399999999999996e-01 -6.3097345878693334e-01 2.1932351406434218e+00 -1.9063448045418083e+00 0 0 0
650 419 9 4.1699999999999998e-01 -1.9374654354155560e+01 -3.9281605078684140e-02 -2.5696599402862352e+00 1 0 0
332 312 9 4.1699999999999998e-01 -1.3389707467774130e+00 2.4767619075890011e+00 -1.2960709831391366e+00 0 0 0
333 313 10 -8.3399999999999996e-01 -3.1255889591349981e+00 6.6328829590079232e+00 -4.1379521441827922e+00 0 0 0
334 313 9 4.1699999999999998e-01 -3.2285612348419219e+00 6.4220975788108401e+00 -3.1938660941850916e+00 0 0 0
335 313 9 4.1699999999999998e-01 -2.8342933964742487e+00 5.7612239428416201e+00 -4.4811260409116214e+00 0 0 0
336 314 10 -8.3399999999999996e-01 -3.0909413264658414e+00 3.1588931426689233e+00 -8.4621258089861640e-01 0 0 0
337 314 9 4.1699999999999998e-01 -3.1945156200477514e+00 4.1188576303761648e+00 -1.0208710314735336e+00 0 0 0
338 314 9 4.1699999999999998e-01 -3.5725855646339073e+00 3.0486019117181589e+00 -1.8711719059702162e-02 0 0 0
339 315 10 -8.3399999999999996e-01 -2.9594128146807446e+00 5.9181161079400253e+00 -1.1705093203011754e+00 0 0 0
340 315 9 4.1699999999999998e-01 -2.3549999452374490e+00 5.7628837538280546e+00 -4.1969006576421330e-01 0 0 0
341 315 9 4.1699999999999998e-01 -3.1555295206712244e+00 6.8586303376277957e+00 -9.9558497280876845e-01 0 0 0
9 9 8 0.0000000000000000e+00 -1.3495874517561049e+01 -7.1825758781170679e+00 9.1916469381368138e-01 0 0 0
10 10 8 0.0000000000000000e+00 -1.3258399119755651e+01 -4.6434200033772530e+00 2.1250035231578579e+00 0 0 0
11 11 8 0.0000000000000000e+00 -1.0804279939982194e+01 -5.8215121234962499e+00 1.1149796022499587e+00 0 0 0
12 12 8 0.0000000000000000e+00 -1.2193187065984128e+01 -3.8189337766620133e+00 -4.6604068813435640e-01 0 0 0
13 13 8 0.0000000000000000e+00 -1.2489072557230505e+01 -7.1774811315861902e+00 3.7207475211381986e+00 0 0 0
14 14 8 0.0000000000000000e+00 -1.2266257787202976e+01 -5.4839608898023515e+00 6.2259846300159198e+00 0 0 0
15 15 8 0.0000000000000000e+00 -9.8605577691836555e+00 -6.7343298725781873e+00 5.4041693150508836e+00 0 0 0
16 16 8 0.0000000000000000e+00 -1.0958495247072905e+01 -4.7585129897493514e+00 3.7810029499458206e+00 0 0 0
25 25 8 0.0000000000000000e+00 -1.4413934515029542e+01 -2.1158653072784479e+00 -4.5060879014019800e-01 0 0 0
26 26 8 0.0000000000000000e+00 -1.3433477641353745e+01 -1.8441640859711690e+00 2.3158865375113571e+00 0 0 0
27 27 8 0.0000000000000000e+00 -1.0774187908483707e+01 -2.8888902653984219e+00 1.7497863821475088e+00 0 0 0
28 28 8 0.0000000000000000e+00 -1.1949031731887105e+01 -6.1627568014740308e-01 3.0333998287964986e-01 0 0 0
29 29 8 0.0000000000000000e+00 -1.3046903096035086e+01 -3.1842701848473745e+00 4.7938672955288446e+00 0 0 0
30 30 8 0.0000000000000000e+00 -1.2096437026996183e+01 -1.2490614456088975e+00 6.8158458152288981e+00 0 0 0
31 31 8 0.0000000000000000e+00 -1.0295688405619394e+01 -3.3760652736914207e+00 6.1506314180237078e+00 0 0 0
32 32 8 0.0000000000000000e+00 -1.0993760481967616e+01 -1.2946268905773843e+00 4.0915338460611137e+00 0 0 0
189 265 10 -8.3399999999999996e-01 -1.6297408650819559e+01 -5.4137003925220171e+00 1.3427138076877694e+00 0 0 0
190 265 9 4.1699999999999998e-01 -1.5945088102471640e+01 -4.8239459822685697e+00 2.0338705589953183e+00 0 0 0
191 265 9 4.1699999999999998e-01 -1.6502419069398403e+01 -4.7815310961555584e+00 6.2539192703556823e-01 0 0 0
674 427 9 4.1699999999999998e-01 -1.9325106609475732e+01 -6.5458721263538855e-02 5.4312472504980054e+00 1 0 0
193 266 9 4.1699999999999998e-01 -1.9002780810187012e+01 -3.6142545669541426e+00 2.8986620765988591e+00 0 0 0
356 320 9 4.1699999999999998e-01 -2.9725172168755667e+00 3.6145543576816248e+00 4.8910813365502044e+00 0 0 0
195 267 10 -8.3399999999999996e-01 -1.8046879695625833e+01 -5.6159278764260838e+00 4.3664444914605651e+00 0 0 0
196 267 9 4.1699999999999998e-01 -1.7088705678035474e+01 -5.7412150724417961e+00 4.2429543244031844e+00 0 0 0
197 267 9 4.1699999999999998e-01 -1.8341726785736796e+01 -5.3523999138680072e+00 3.4784311509969843e+00 0 0 0
198 268 10 -8.3399999999999996e-01 -1.5834120158386792e+01 -3.6050923344868391e+00 3.4715223345715729e+00 0 0 0
199 268 9 4.1699999999999998e-01 -1.5806070379496584e+01 -2.7788362828838857e+00 2.9445583747092257e+00 0 0 0
200 268 9 4.1699999999999998e-01 -1.6649048442447608e+01 -3.4385040906623918e+00 3.9794285207851208e+00 0 0 0
201 269 10 -8.3399999999999996e-01 -1.5209377010574263e+01 -6.0350787681447517e+00 4.4779907679721491e+00 0 0 0
202 269 9 4.1699999999999998e-01 -1.5086298977479583e+01 -5.1146716157461558e+00 4.1712064983469999e+00 0 0 0
203 269 9 4.1699999999999998e-01 -1.5296924778806718e+01 -5.9057693112618228e+00 5.4518324151015367e+00 0 0 0
353 319 9 4.1699999999999998e-01 -1.2432452384427135e+00 7.1839644908373641e+00 4.9075943716558950e+00 0 0 0
362 322 9 4.1699999999999998e-01 -4.6923554125613515e-01 -5.0745389467341244e+00 6.7887086154157590e+00 0 0 -1
355 320 9 4.1699999999999998e-01 -3.5148674080153786e+00 3.8507080477357052e+00 6.2809596568480046e+00 0 0 0
225 277 10 -8.3399999999999996e-01 -1.6595894026615436e+01 -1.3841854072022683e+00 2.1591726853651174e+00 0 0 0
226 277 9 4.1699999999999998e-01 -1.6508008611394391e+01 -4.3084160793999909e-01 2.3724855123490478e+00 0 0 0
227 277 9 4.1699999999999998e-01 -1.6830158924006152e+01 -1.3229988398937040e+00 1.2060183655916004e+00 0 0 0
231 279 10 -8.3399999999999996e-01 -1.8324719171193774e+01 -2.4260331845888423e+00 3.9690798931303237e+00 0 0 0
232 279 9 4.1699999999999998e-01 -1.7772068130410680e+01 -1.9116020445280779e+00 3.3411242096154190e+00 0 0 0
233 279 9 4.1699999999999998e-01 -1.8869675747140978e+01 -1.7204656205328981e+00 4.3743369259707290e+00 0 0 0
237 281 10 -8.3399999999999996e-01 -1.5884078798032700e+01 -7.7346032771609219e-01 7.2979337454866222e+00 0 0 0
238 281 9 4.1699999999999998e-01 -1.5933075596251825e+01 1.3220600632205559e-02 -6.9122813025575605e+00 0 0 1
239 281 9 4.1699999999999998e-01 -1.4935840667156986e+01 -8.2862087534458251e-01 7.1230826756099628e+00 0 0 0
73 73 8 0.0000000000000000e+00 -8.2901103087834471e+00 -7.0808831152530560e+00 5.9652984321933000e-01 0 0 0
74 74 8 0.0000000000000000e+00 -8.4613844168558199e+00 -5.7245149260721799e+00 3.0349616902114067e+00 0 0 0
75 75 8 0.0000000000000000e+00 -5.9562039660971902e+00 -6.8765456347337661e+00 2.2068076702288701e+00 0 0 0
76 76 8 0.0000000000000000e+00 -5.3986324440601221e+00 -5.0560500863458637e+00 2.4092666242796778e-02 0 0 0
77 77 8 0.0000000000000000e+00 -7.5158726822689257e+00 6.8226650008320222e+00 4.4519038740585382e+00 0 -1 0
78 78 8 0.0000000000000000e+00 -7.7797009800241623e+00 -4.8355041559481400e+00 5.7289500591057232e+00 0 0 0
79 79 8 0.0000000000000000e+00 -6.1617023050567097e+00 -7.2754651824719891e+00 6.7697328154181227e+00 0 0 0
80 80 8 0.0000000000000000e+00 -5.3057184368278678e+00 -5.5644056517450915e+00 4.6059481228962307e+00 0 0 0
89 89 8 0.0000000000000000e+00 -8.3778166798620362e+00 -4.2198058349205452e+00 5.1254327870558480e-01 0 0 0
90 90 8 0.0000000000000000e+00 -8.3476888744838806e+00 -1.4726471617882091e+00 1.4732587367721557e+00 0 0 0
91 91 8 0.0000000000000000e+00 -6.3348475851335442e+00 -3.9433711019443245e+00 2.4447716238113939e+00 0 0 0
92 92 8 0.0000000000000000e+00 -4.0722734864660417e+00 -3.1625050923536974e-01 -2.5802911471555029e-01 0 0 0
93 93 8 0.0000000000000000e+00 -8.6757170275466695e+00 -2.9902955181335464e+00 3.8047372889194220e+00 0 0 0
94 94 8 0.0000000000000000e+00 -7.7969797229401756e+00 -2.0438358626484061e+00 6.4321902115067529e+00 0 0 0
95 95 8 0.0000000000000000e+00 -5.6038883837054465e+00 -2.7041557054271159e+00 4.8974593207359076e+00 0 0 0
96 96 8 0.0000000000000000e+00 -5.4705999069912110e+00 -1.2755183181035101e+00 2.3615928176610552e+00 0 0 0
129 129 7 1.3300000000000001e+00 -2.3994886668395403e+00 -3.1464517904093272e+00 1.6311831864522426e+00 0 0 0
132 129 6 -6.5000000000000002e-01 -2.8781083031427204e+00 -2.3273524551538962e+00 2.7299673554444799e+00 0 0 0
133 129 6 -6.5000000000000002e-01 -2.0029086873291089e+00 -4.4728394174495660e+00 2.0797021417882156e+00 0 0 0
294 300 10 -8.3399999999999996e-01 -1.1464615935864719e-01 -6.6001764183849145e+00 5.7479677033527132e-01 0 0 0
295 300 9 4.1699999999999998e-01 -1.4841339965785511e-01 -5.9436495655602419e+00 1.2946773172966728e+00 0 0 0
296 300 9 4.1699999999999998e-01 -9.8356671494700554e-01 -6.4130181674255597e+00 1.4921761168838044e-01 0 0 0
297 301 10 -8.3399999999999996e-01 -2.7263850478102349e+00 -6.9696303241621607e+00 2.6613755434471313e+00 0 0 0
298 301 9 4.1699999999999998e-01 -2.6325076646508978e+00 -6.0418750096266658e+00 2.3672138208847935e+00 0 0 0
299 301 9 4.1699999999999998e-01 -2.8435416525459658e+00 -6.8610892957308423e+00 3.6252011103425268e+00 0 0 0
300 302 10 -8.3399999999999996e-01 -2.5438814384082198e+00 -6.5334150065416638e+00 5.3969935522682588e+00 0 0 0
301 302 9 4.1699999999999998e-01 -2.8851953119773279e+00 -6.7773824275373284e+00 6.2789645178115618e+00 0 0 0
302 302 9 4.1699999999999998e-01 -2.5977998545775418e+00 -5.5553426125725487e+00 5.4390617990792220e+00 0 0 0
303 303 10 -8.3399999999999996e-01 -2.7746530420758826e+00 -3.7786199715336211e+00 5.2881503472033371e+00 0 0 0
304 303 9 4.1699999999999998e-01 -2.1655842474229252e+00 -3.0108567045637291e+00 5.2556794774992843e+00 0 0 0
305 303 9 4.1699999999999998e-01 -3.2938897983515316e+00 -3.5938831836960463e+00 4.4893833072052205e+00 0 0 0
318 308 10 -8.3399999999999996e-01 -1.3667871656193813e+00 -1.4865201717071028e+00 4.8025373650451675e+00 0 0 0
319 308 9 4.1699999999999998e-01 -1.8365751277928541e+00 -1.5698691587428339e+00 3.9446099477732011e+00 0 0 0
320 308 9 4.1699999999999998e-01 -1.7938475283439377e+00 -6.8552877312465899e-01 5.1739335977434466e+00 0 0 0
41 41 8 0.0000000000000000e+00 -1.4619367555382981e+01 5.0078168774232690e-01 1.0831643645789721e+00 0 0 0
42 42 8 0.0000000000000000e+00 -1.4218449551953528e+01 2.9823443089819959e+00 2.4309593465596500e+00 0 0 0
43 43 8 0.0000000000000000e+00 -1.2365769883552105e+01 8.0770330493825204e-01 2.7595031507301373e+00 0 0 0
44 44 8 0.0000000000000000e+00 -1.2139454208998336e+01 2.4495437001793587e+00 4.4631704682256473e-01 0 0 0
45 45 8 0.0000000000000000e+00 -1.4088876168626058e+01 -5.2782459611476940e-01 4.7731807326681253e+00 0 0 0
46 46 8 0.0000000000000000e+00 -1.4670486897741306e+01 2.2554239204669817e+00 5.1663954930807447e+00 0 0 0
47 47 8 0.0000000000000000e+00 -9.5668198960628832e+00 4.7523809107456350e-02 6.1299244236344279e+00 0 0 0
48 48 8 0.0000000000000000e+00 -1.2027522643310126e+01 1.2494626427659528e+00 5.5466024607967102e+00 0 0 0
57 57 8 0.0000000000000000e+00 -1.4782293049795829e+01 3.1065210428909538e+00 -3.8638993805408861e-01 0 0 0
58 58 8 0.0000000000000000e+00 -1.2465329347297212e+01 5.1728963349934922e+00 1.8811443890231374e+00 0 0 0
59 59 8 0.0000000000000000e+00 -1.1647518641792354e+01 3.4156830066998576e+00 3.8215857918061098e+00 0 0 0
60 60 8 0.0000000000000000e+00 -1.0609862244462123e+01 6.2807662811717480e+00 1.6963158465052233e-01 0 0 0
61 61 8 0.0000000000000000e+00 -1.3900750063411738e+01 5.0417497927115456e+00 4.3814186907247503e+00 0 0 0
62 62 8 0.0000000000000000e+00 -1.3680214069951580e+01 6.8753518423430311e+00 6.5011824261205264e+00 0 0 0
63 63 8 0.0000000000000000e+00 -1.1240185811528081e+01 5.6366818175848810e+00 5.4417092634503428e+00 0 0 0
64 64 8 0.0000000000000000e+00 -9.9656984412325986e+00 6.5709082166211870e+00 2.8871875848120054e+00 0 0 0
228 278 10 -8.3399999999999996e-01 -1.9327012049793012e+01 3.0715374984330857e-01 1.7081033494403213e+00 0 0 0
229 278 9 4.1699999999999998e-01 -1.8467724924709032e+01 6.3447139423669463e-01 2.0456520558203652e+00 0 0 0
313 306 9 4.1699999999999998e-01 -2.9009721340166643e+00 -1.9905159126148169e+00 -2.4182966577899832e+00 0 0 0