LAMMPS data file via write_data, version 16 Mar 2018, timestep = 500000

1144 atoms
12 atom types
583 bonds
8 bond types
350 angles
13 angle types
132 dihedrals
18 dihedral types

-1.2224224112434927e+01 1.2224224112434927e+01 xlo xhi
-1.2224224112434927e+01 1.2224224112434927e+01 ylo yhi
-1.2224224112434927e+01 1.2224224112434927e+01 zlo zhi

Masses

1 1.008
2 1.008
3 12.011
4 12.011
5 15.9994
6 15.9994
7 32.06
8 196.966
9 1.008
10 15.9994
11 35.45
12 22.9898

Pair Coeffs # lj/charmmfsw/coul/long

1 0.028 2.38761 0.028 2.38761
2 0.024 2.38761 0.024 2.38761
3 0.056 3.58141 0.01 3.38542
4 0.078 3.63487 0.01 3.38542
5 0.1 2.93997 0.1 2.93997
6 0.12 3.02906 0.12 3.02906
7 0.47 3.74177 0.47 3.74177
8 5.29 2.62904 5.29 2.62904
9 0.046 0.400014 0.046 0.400014
10 0.1521 3.15057 0.1521 3.15057
11 0.15 4.04468 0.15 4.04468
12 0.0469 2.42993 0.0469 2.42993

Bond Coeffs # harmonic/omp

1 222.5 1.53
2 222.5 1.528
3 309 1.111
4 340 1.43
5 322 1.111
6 450 0.9572
7 540 1.448
8 250 1.575

Angle Coeffs # charmm/omp

1 58.35 113.6 11.16 2.561
2 58 115 8 2.561
3 26.5 110.1 22.53 2.179
4 75.7 110.1 0 0
5 34.6 110.1 22.53 2.179
6 15 109 27 1.9
7 34.6 110.1 22.53 2.179
8 35.5 109 5.4 1.802
9 60 109.5 0 0
10 35.5 108.4 5.4 1.802
11 55 104.52 0 0
12 130 109.47 35 2.45
13 85 98 0 0

Dihedral Coeffs # charmmfsw

1 0.101 2 0 1
2 0.142 3 180 0
3 0.074 4 0 0
4 0.097 5 0 0
5 0.162 2 0 1
6 0.047 3 180 0
7 0.105 4 0 0
8 0.177 5 0 0
9 0.19 3 0 1
10 0 3 0 1
11 0.16 3 0 1
12 0 3 0 1
13 0 3 0 1
14 0.19 3 0 1
15 0.19 3 0 1
16 0.19 3 0 1
17 0.16 3 0 1
18 0 3 0 1

Atoms # full

1 1 8 0.0000000000000000e+00 -8.2750742506583457e+00 -1.0173778550883783e+01 -1.1289047622750754e+01 0 0 0
2 2 8 0.0000000000000000e+00 -8.0596214361954193e+00 -8.2804999637585190e+00 -9.2234104536889596e+00 0 0 0
25 25 8 0.0000000000000000e+00 -8.2758057331496993e+00 -6.3032032730307090e+00 -1.1345336102237548e+01 0 0 0
26 26 8 0.0000000000000000e+00 -8.1026818610789828e+00 -4.1090445699512106e+00 -9.3293165299833607e+00 0 0 0
49 49 8 0.0000000000000000e+00 -8.1732734914991312e+00 -2.1615687200031601e+00 -1.1294685962748737e+01 0 0 0
195 195 8 0.0000000000000000e+00 -2.1541906271427749e+00 -2.1238677692903036e+00 -9.2753260865803746e+00 0 0 0
50 50 8 0.0000000000000000e+00 -8.3671048892363835e+00 -1.8385448873647703e-01 -9.2118705530363805e+00 0 0 0
194 194 8 0.0000000000000000e+00 -4.2594695012196109e+00 -7.9846686040450879e-02 -9.3277916063265387e+00 0 0 0
171 171 8 0.0000000000000000e+00 -1.9211745264990221e+00 -6.3477513112858919e+00 -9.3370858982533864e+00 0 0 0
860 756 10 -8.3399999999999996e-01 -1.0908669238128811e+01 -2.3541651341223990e+00 -9.1280827638471216e+00 1 0 0
995 801 10 -8.3399999999999996e-01 -1.1063480911471666e+01 -2.2996324419203387e-01 -7.3520719262523544e+00 1 0 0
996 801 9 4.1699999999999998e-01 -1.1285463023093351e+01 -8.7708028155445505e-01 -8.0215458417874235e+00 1 0 0
861 756 9 4.1699999999999998e-01 -1.0220407070817931e+01 -2.4768615983436244e+00 -8.4742688697473891e+00 1 0 0
172 172 8 0.0000000000000000e+00 -1.9917369710349282e+00 -4.1475871652490399e+00 -1.1263200544892868e+01 0 0 0
695 701 10 -8.3399999999999996e-01 -1.0655882326335986e+01 -4.3640420171440804e+00 -1.1159769295907827e+01 1 -1 0
52 52 8 0.0000000000000000e+00 -6.2878057301726864e+00 -9.7525504884872813e-02 -1.1266585357012728e+01 0 0 0
697 701 9 4.1699999999999998e-01 -1.1512324258091812e+01 -4.5131768206851728e+00 -1.0759147426694920e+01 1 -1 0
610 672 10 -8.3399999999999996e-01 -1.0448618077706220e+01 -1.0003890138171418e+01 -9.3453494762318705e+00 1 1 1
398 601 9 4.1699999999999998e-01 -1.0505625091792671e+01 -4.8403998293886836e+00 -7.5912552253235228e+00 0 0 0
550 652 10 -8.3399999999999996e-01 -1.0806291804767989e+01 -8.5174958364791440e+00 -1.1549279310359761e+01 1 1 1
611 672 9 4.1699999999999998e-01 -1.0674420471454466e+01 -9.3414256945437408e+00 -9.9983318586006078e+00 1 1 1
905 771 10 -8.3399999999999996e-01 -1.0795005779195369e+01 -6.2772497381262866e+00 -9.1198770634798851e+00 1 0 -1
148 148 8 0.0000000000000000e+00 -1.9080172042986816e+00 -8.2719571600494852e+00 -1.1440107324290832e+01 0 0 0
612 672 9 4.1699999999999998e-01 -1.0530853005934352e+01 -1.0836691318374282e+01 -9.8100122108109673e+00 1 1 1
3 3 8 0.0000000000000000e+00 -5.9792190222778459e+00 -1.0323687380781664e+01 -9.2435015562561134e+00 0 0 0
4 4 8 0.0000000000000000e+00 -6.0637286150407110e+00 -8.4185063552973975e+00 -1.1349360749489177e+01 0 0 0
27 27 8 0.0000000000000000e+00 -6.0399382471946179e+00 -6.1657627370453847e+00 -9.2370613869306268e+00 0 0 0
28 28 8 0.0000000000000000e+00 -6.0608474728671702e+00 -4.3076019371124659e+00 -1.1369801819147145e+01 0 0 0
51 51 8 0.0000000000000000e+00 -6.1164230047284125e+00 -2.1797648871602138e+00 -9.2272292817634458e+00 0 0 0
1080 829 9 4.1699999999999998e-01 -1.0521752365874383e+01 -8.9705148328997204e+00 -8.0252456453406236e+00 1 1 2
145 145 8 0.0000000000000000e+00 -3.9367209246022639e+00 -1.0384406778187278e+01 -1.1421480496052194e+01 0 0 0
146 146 8 0.0000000000000000e+00 -4.0618131075352082e+00 -8.2918313174383425e+00 -9.3168704043970862e+00 0 0 0
169 169 8 0.0000000000000000e+00 -4.0157882440671369e+00 -6.2127721274556134e+00 -1.1257510471445832e+01 0 0 0
170 170 8 0.0000000000000000e+00 -4.1042082643618061e+00 -4.2027121333552548e+00 -9.2328541304334770e+00 0 0 0
193 193 8 0.0000000000000000e+00 -4.1435748437337478e+00 -2.1635000202544354e+00 -1.1324449887410610e+01 0 0 0
1081 829 9 4.1699999999999998e-01 -1.1037761631470321e+01 -7.5641988790835715e+00 -7.8063733795512045e+00 1 1 2
147 147 8 0.0000000000000000e+00 -1.9357882419198975e+00 -1.0305146279435661e+01 -9.2913364762442487e+00 0 0 0
696 701 9 4.1699999999999998e-01 -1.0644691869003085e+01 -4.9405031011725340e+00 -1.1923836861674339e+01 1 -1 0
365 590 9 4.1699999999999998e-01 -1.0546857072751152e+01 -2.7171248479492816e+00 -1.2127692788563044e+01 0 0 0
906 771 9 4.1699999999999998e-01 -1.0004475720332142e+01 -6.1426574018440343e+00 -9.6425423190045869e+00 1 0 -1
862 756 9 4.1699999999999998e-01 -1.0675266228672557e+01 -2.9529079237403040e+00 -9.8374923416855431e+00 1 0 0
1024 810 9 4.1699999999999998e-01 -1.0224954049138205e+01 -1.2209013712760829e+01 -7.8671437229113037e+00 1 1 1
907 771 9 4.1699999999999998e-01 -1.1515567030740726e+01 -6.1012039391021586e+00 -9.7248821876423648e+00 1 0 -1
176 176 8 0.0000000000000000e+00 -2.0211617702739368e+00 -4.1466382323393907e+00 -7.3618615289514526e+00 0 0 0
196 196 8 0.0000000000000000e+00 -1.9934523321313435e+00 -1.0900810182238474e-01 -1.1350797298579113e+01 0 0 0
859 755 9 4.1699999999999998e-01 -1.0155052543803436e+01 -1.2146264056841678e+01 -1.1780268494986153e+01 1 1 1
552 652 9 4.1699999999999998e-01 -1.1088571696441370e+01 -7.7228784399652701e+00 -1.2002195524383856e+01 1 1 1
1079 829 10 -8.3399999999999996e-01 -1.0650329846390282e+01 -8.3085666534184650e+00 -7.3458898391392804e+00 1 1 2
29 29 8 0.0000000000000000e+00 -8.2273200330971950e+00 -6.3283055336814593e+00 -7.3583261767605457e+00 0 0 0
985 797 9 4.1699999999999998e-01 -1.0988960044578421e+01 -4.2233583412191028e-01 -1.2099808709522478e+01 1 0 0
551 652 9 4.1699999999999998e-01 -1.0986806855872398e+01 -9.2240876453419336e+00 -1.2169258486518387e+01 1 1 1
1098 835 9 4.1699999999999998e-01 -1.0495684781798985e+01 -9.6775164818659469e+00 -5.8991068199048486e+00 1 2 -1
6 6 8 0.0000000000000000e+00 -8.2749570160208368e+00 -8.2316608056396028e+00 -5.2698375014558332e+00 0 0 0
9 9 8 0.0000000000000000e+00 -8.3077393112133109e+00 -1.0169374814422985e+01 -3.2974123116251328e+00 0 0 0
60 60 8 0.0000000000000000e+00 -6.2725803127059487e+00 -1.7046547001855833e-01 -3.0948503834119063e+00 0 0 0
30 30 8 0.0000000000000000e+00 -8.4021699181411567e+00 -4.2894313475362562e+00 -5.1936344045312595e+00 0 0 0
33 33 8 0.0000000000000000e+00 -8.2431463175972599e+00 -6.2170745809961279e+00 -3.1449199765690592e+00 0 0 0
397 601 10 -8.3399999999999996e-01 -1.0918406194540573e+01 -4.3896218961705111e+00 -6.8546122555227438e+00 0 0 0
36 36 8 0.0000000000000000e+00 -6.1428652415164837e+00 -4.2867872568258036e+00 -3.1697192751877701e+00 0 0 0
57 57 8 0.0000000000000000e+00 -8.1527820401494715e+00 -2.2698171020821030e+00 -3.1277111081984303e+00 0 0 0
177 177 8 0.0000000000000000e+00 -4.0148331592551356e+00 -6.1687447328626295e+00 -3.0122775061660159e+00 0 0 0
1048 818 9 4.1699999999999998e-01 -1.0700250312506927e+01 -2.7477643439306880e+00 -4.4800330973099998e+00 1 0 -1
174 174 8 0.0000000000000000e+00 -4.0183789505369800e+00 -4.2474622755744846e+00 -5.1784303348091303e+00 0 0 0
843 750 9 4.1699999999999998e-01 -1.0589001184850861e+01 -8.6384481552698433e-01 -4.0226748173038578e+00 1 0 0
153 153 8 0.0000000000000000e+00 -4.0386246735635254e+00 -1.0300564649343555e+01 -3.1729829971013124e+00 0 0 0
204 204 8 0.0000000000000000e+00 -2.1072438111496994e+00 -6.1295143413214979e-02 -3.2254599004008337e+00 0 0 0
849 752 9 4.1699999999999998e-01 -1.0496553300809360e+01 -7.0750198575495871e+00 -5.9638140360944787e+00 1 1 -1
1097 835 10 -8.3399999999999996e-01 -1.0670717483222711e+01 -1.0151707054111908e+01 -5.0862484673648503e+00 1 2 -1
55 55 8 0.0000000000000000e+00 -6.2702839606051937e+00 -2.1974481808956656e+00 -5.0708149518922347e+00 0 0 0
842 750 10 -8.3399999999999996e-01 -1.0661262681972405e+01 -2.6229391410791875e-01 -3.2816305299847639e+00 1 0 0
848 752 10 -8.3399999999999996e-01 -1.0596497154929802e+01 -6.4449878919490260e+00 -5.2501594977705413e+00 1 1 -1
850 752 9 4.1699999999999998e-01 -1.0352729281412351e+01 -6.9327943800045047e+00 -4.4634868193089501e+00 1 1 -1
152 152 8 0.0000000000000000e+00 -1.9147465051283752e+00 -8.2517464796814899e+00 -7.1640545376187648e+00 0 0 0
180 180 8 0.0000000000000000e+00 -1.9601869653000481e+00 -4.1342303821607009e+00 -3.1830481688834094e+00 0 0 0
201 201 8 0.0000000000000000e+00 -4.2019989086865550e+00 -2.2638258378909382e+00 -3.0900630960757374e+00 0 0 0
175 175 8 0.0000000000000000e+00 -1.8365319242948499e+00 -6.0960493323539708e+00 -5.0745716689489786e+00 0 0 0
1047 818 9 4.1699999999999998e-01 -1.1294940661888798e+01 -2.5021277049265311e+00 -5.8503984580545572e+00 1 0 -1
32 32 8 0.0000000000000000e+00 -6.1621788921673897e+00 -4.2759590224577213e+00 -7.0899182090390678e+00 0 0 0
156 156 8 0.0000000000000000e+00 -1.9026981096446423e+00 -8.1589318701999787e+00 -3.0942984923052355e+00 0 0 0
682 696 9 4.1699999999999998e-01 -1.1520105108919379e+01 -1.1646262361710733e+01 -2.7043277126329288e+00 1 2 1
150 150 8 0.0000000000000000e+00 -4.0431965046116742e+00 -8.1524712278964344e+00 -5.1360163342226226e+00 0 0 0
399 601 9 4.1699999999999998e-01 -1.0863337840022927e+01 -5.0130854366540039e+00 -6.1303936765107725e+00 0 0 0
918 775 9 4.1699999999999998e-01 -1.0856765095619508e+01 -5.0509173404979624e+00 -3.8415663341860298e+00 1 1 2
199 199 8 0.0000000000000000e+00 -2.0583241738264642e+00 -2.1755401241784256e+00 -5.1556359546723618e+00 0 0 0
1099 835 9 4.1699999999999998e-01 -1.0883197848718147e+01 -1.1041359186744520e+01 -5.3683885411248893e+00 1 2 -1
7 7 8 0.0000000000000000e+00 -6.1110103226534633e+00 -1.0196545150217924e+01 -5.1466065842211890e+00 0 0 0
151 151 8 0.0000000000000000e+00 -2.0812599087782129e+00 -1.0222869100124647e+01 -5.1601041927593236e+00 0 0 0
12 12 8 0.0000000000000000e+00 -6.0625766822113238e+00 -8.2486200696765497e+00 -3.1142798795819133e+00 0 0 0
31 31 8 0.0000000000000000e+00 -6.1722852779249413e+00 -6.3103903873174225e+00 -5.0964831161312327e+00 0 0 0
8 8 8 0.0000000000000000e+00 -6.0712988283025151e+00 -8.2612081812694900e+00 -7.2821686363282456e+00 0 0 0
997 801 9 4.1699999999999998e-01 -1.0358076543720911e+01 -6.3715318266810572e-01 -6.8492470330724062e+00 1 0 0
344 583 9 4.1699999999999998e-01 -1.0485255857256680e+01 -8.7944643272866081e+00 -3.9952342748563012e+00 0 0 0
681 696 9 4.1699999999999998e-01 -1.0061209210640566e+01 -1.1565074632406439e+01 -3.1004672113148382e+00 1 2 1
917 775 10 -8.3399999999999996e-01 -1.0699844780362188e+01 -4.3495482579532778e+00 -3.2093565060414435e+00 1 1 2
54 54 8 0.0000000000000000e+00 -8.3332340320726903e+00 -1.2320203285702259e-01 -5.1830136705567851e+00 0 0 0
198 198 8 0.0000000000000000e+00 -4.1802190224136764e+00 -2.0171220871209455e-01 -5.2033624021571150e+00 0 0 0
149 149 8 0.0000000000000000e+00 -3.9326427600780267e+00 -1.0304754806693643e+01 -7.1653875920521442e+00 0 0 0
680 696 10 -8.3399999999999996e-01 -1.0787193277853026e+01 -1.2181989237731406e+01 -3.0077561285094454e+00 1 2 1
343 583 10 -8.3399999999999996e-01 -1.0657613816857141e+01 -8.1881347212511244e+00 -3.2748947713452492e+00 0 0 0
5 5 8 0.0000000000000000e+00 -8.0230104048225108e+00 -1.0248625328336093e+01 -7.2106043184298017e+00 0 0 0
1046 818 10 -8.3399999999999996e-01 -1.0630007754301928e+01 -2.1756133805204572e+00 -5.2441934874043916e+00 1 0 -1
724 710 9 4.1699999999999998e-01 -2.6980015300974020e-02 -5.4947927435199313e+00 -6.7899396444218274e+00 0 -1 0
197 197 8 0.0000000000000000e+00 -4.1122503429602890e+00 -2.1611515861179811e+00 -7.1832777340299216e+00 0 0 0
519 641 9 4.1699999999999998e-01 -4.9458119266751427e-01 -2.7770071812871091e+00 -6.9998467230335599e+00 0 0 0
53 53 8 0.0000000000000000e+00 -8.3254402811567196e+00 -2.2234973512717051e+00 -7.2899209019787952e+00 0 0 0
56 56 8 0.0000000000000000e+00 -6.2012979178847001e+00 -1.3935547862744321e-01 -7.2580836650845013e+00 0 0 0
1022 810 10 -8.3399999999999996e-01 -1.0771294803442078e+01 -1.2221750493922849e+01 -7.0812802504093284e+00 1 1 1
173 173 8 0.0000000000000000e+00 -4.0746279794070057e+00 -6.2615569392317205e+00 -7.2577666161258527e+00 0 0 0
345 583 9 4.1699999999999998e-01 -1.0820468007930167e+01 -8.7530064690302094e+00 -2.5194940356098781e+00 0 0 0
200 200 8 0.0000000000000000e+00 -2.1261065497969485e+00 -2.1032769354606337e-01 -7.3234524148612374e+00 0 0 0
10 10 8 0.0000000000000000e+00 -8.0769987727201098e+00 -8.2448046352756421e+00 -1.1847012843603637e+00 0 0 0
34 34 8 0.0000000000000000e+00 -8.4940786712632921e+00 -4.2788186456429580e+00 -1.0257246793519164e+00 0 0 0
808 738 9 4.1699999999999998e-01 -1.0779951848159637e+01 -1.3986674321057790e+00 -1.7953248627997760e+00 1 1 0
817 741 9 4.1699999999999998e-01 -1.0693256933750270e+01 -9.0079948566423287e+00 2.0963735473671674e+00 1 1 2
377 594 9 4.1699999999999998e-01 -1.0521735396845058e+01 -3.2727552245563776e+00 1.6859103154545962e+00 0 0 0
1012 806 9 4.1699999999999998e-01 -1.1077871709200229e+01 -1.0211260541664990e+00 4.1003603489666647e-02 1 0 0
816 741 9 4.1699999999999998e-01 -1.0485133961362330e+01 -7.5687246884400441e+00 1.6755631349098732e+00 1 1 2
130 130 8 0.0000000000000000e+00 -8.3897052486700900e+00 -1.2091485568716354e+01 -1.0287304074314749e+00 0 1 0
378 594 9 4.1699999999999998e-01 -1.1275745170298029e+01 -3.6442682459160372e+00 4.2680645610297319e-01 0 0 0
835 747 9 4.1699999999999998e-01 -1.0772580318180081e+01 -1.0708471910762682e+01 -6.5983044987092443e-01 1 0 1
64 64 8 0.0000000000000000e+00 -6.2576599570585945e+00 -2.9116695082538685e-01 8.8404396469058188e-01 0 0 0
807 738 9 4.1699999999999998e-01 -1.0818974830774751e+01 -2.9057914056500098e+00 -1.9329828732579819e+00 1 1 0
13 13 8 0.0000000000000000e+00 -8.1537423578845889e+00 -1.0180399465956139e+01 9.9989282832126269e-01 0 0 0
37 37 8 0.0000000000000000e+00 -8.2234435112772140e+00 -6.1804019901022000e+00 9.0317213498588689e-01 0 0 0
61 61 8 0.0000000000000000e+00 -8.3101100456063755e+00 -2.1770871629385127e+00 9.3316922432361793e-01 0 0 0
374 593 9 4.1699999999999998e-01 -1.0029314138599618e+01 -6.3659123641235942e+00 -8.6501805507287111e-01 0 0 0
1141 849 9 4.1699999999999998e-01 -1.2414679382287878e-02 -7.2824410726264588e-01 -1.2092220204933819e+00 0 2 1
833 747 10 -8.3399999999999996e-01 -1.0959976058591014e+01 -9.8315813495456723e+00 -9.9475973731290113e-01 1 0 1
373 593 10 -8.3399999999999996e-01 -1.0869130154810655e+01 -5.9107266981856119e+00 -8.0380604910856501e-01 0 0 0
208 208 8 0.0000000000000000e+00 -2.2499531279176330e+00 -1.2923186236510026e-01 8.9310093730925666e-01 0 0 0
160 160 8 0.0000000000000000e+00 -1.9361309616926192e+00 -8.2559931895514840e+00 7.6567965389832193e-01 0 0 0
376 594 10 -8.3399999999999996e-01 -1.0587189122611791e+01 -3.9530222611696115e+00 1.0156981008130517e+00 0 0 0
834 747 9 4.1699999999999998e-01 -1.0998825929464269e+01 -9.2795957469820163e+00 -2.1371272473532757e-01 1 0 1
155 155 8 0.0000000000000000e+00 -2.0425438330490420e+00 -1.0396135791072812e+01 -1.1213631179906143e+00 0 0 0
203 203 8 0.0000000000000000e+00 -2.0701157496386968e+00 -2.0348811570712964e+00 -1.1673041222504779e+00 0 0 0
184 184 8 0.0000000000000000e+00 -1.8785844026163114e+00 -4.2347907010349992e+00 9.6350722237088582e-01 0 0 0
179 179 8 0.0000000000000000e+00 -1.7196582971573200e+00 -6.0622661689865156e+00 -1.1942439350012000e+00 0 0 0
11 11 8 0.0000000000000000e+00 -6.0703819642340218e+00 -1.0220386575632288e+01 -1.1202658342217251e+00 0 0 0
35 35 8 0.0000000000000000e+00 -6.0863828231040085e+00 -6.2628329852866695e+00 -1.0755079426826071e+00 0 0 0
59 59 8 0.0000000000000000e+00 -6.2619898396168150e+00 -2.3319144580228075e+00 -1.0603287506567132e+00 0 0 0
154 154 8 0.0000000000000000e+00 -3.9718924054970399e+00 -8.1675383620852173e+00 -1.0501838994809274e+00 0 0 0
178 178 8 0.0000000000000000e+00 -4.1261841319824715e+00 -4.1578731823219659e+00 -1.0300572339313387e+00 0 0 0
815 741 10 -8.3399999999999996e-01 -1.0884997782741390e+01 -8.3904073283988296e+00 1.3906448932067705e+00 1 1 2
16 16 8 0.0000000000000000e+00 -6.1696148984443049e+00 -8.2378136509368005e+00 9.4438466381913144e-01 0 0 0
40 40 8 0.0000000000000000e+00 -6.0896644124882551e+00 -4.2595235301971437e+00 1.1231596600644254e+00 0 0 0
806 738 10 -8.3399999999999996e-01 -1.1035586325899287e+01 -2.1949350585838374e+00 -1.3296632571824141e+00 1 1 0
157 157 8 0.0000000000000000e+00 -4.0378590670252894e+00 -1.0254989054488785e+01 1.0045416011629398e+00 0 0 0
181 181 8 0.0000000000000000e+00 -4.0302449600705010e+00 -6.1741106309365446e+00 9.1187135755782789e-01 0 0 0
205 205 8 0.0000000000000000e+00 -4.0820279322399591e+00 -2.2885025756859827e+00 9.8635344498810440e-01 0 0 0
1010 806 10 -8.3399999999999996e-01 -1.0896665318510786e+01 -3.8626313302675402e-01 7.3407298242351016e-01 1 0 0
375 593 9 4.1699999999999998e-01 -1.0835066660990563e+01 -5.4564227212332712e+00 3.8024941708982532e-02 0 0 0
202 202 8 0.0000000000000000e+00 -4.1664833247219475e+00 -2.0906030516307675e-01 -1.2213405556123500e+00 0 0 0
692 700 10 -8.3399999999999996e-01 -1.1046951138730375e+01 -1.2144942053817784e+01 9.1698905501059524e-01 1 0 1
694 700 9 4.1699999999999998e-01 -1.1266502819411633e+01 -1.1447687612254335e+01 1.5349414414050011e+00 1 0 1
952 786 9 4.1699999999999998e-01 -1.0882805538507101e+01 -5.5632849429929676e+00 2.1809551127073763e+00 1 0 0
58 58 8 0.0000000000000000e+00 -8.3587247202894570e+00 -2.2058194689120372e-01 -1.1208493687993886e+00 0 0 0
638 681 9 4.1699999999999998e-01 -1.6962594225291103e-01 -7.0092398673321963e+00 1.5248465745832163e+00 0 -1 0
919 775 9 4.1699999999999998e-01 -1.0483927993419393e+01 -4.8042242124110981e+00 -2.3951811200542990e+00 1 1 2
310 289 1 8.9999999999999997e-02 -2.2450584457527706e-01 -2.0899274949047091e+00 1.0681600197504468e+00 0 0 0
705 704 9 4.1699999999999998e-01 -1.0285886841737657e+01 -1.4656905400927835e+00 2.2488372324330537e+00 1 -1 -1
163 163 8 0.0000000000000000e+00 -1.9256177891422619e+00 -1.0222984195200842e+01 7.1196359084278917e+00 0 0 0
17 17 8 0.0000000000000000e+00 -8.2807987424855121e+00 -1.0186442162057812e+01 4.9957346493908004e+00 0 0 0
380 595 9 4.1699999999999998e-01 -1.0991177498213267e+01 -7.5541765222510673e+00 5.7385513007971536e+00 0 0 0
728 712 10 -8.3399999999999996e-01 -1.0656579665116555e+01 -1.0165383488567713e+01 6.7462579997462937e+00 1 1 -1
41 41 8 0.0000000000000000e+00 -8.1803320804788235e+00 -6.3133982715935755e+00 5.0931501210435908e+00 0 0 0
951 786 9 4.1699999999999998e-01 -1.0606427488742048e+01 -5.4071928858095717e+00 3.6612069950655646e+00 1 0 0
43 43 8 0.0000000000000000e+00 -5.9835778698428754e+00 -6.1608095590380358e+00 7.0965315793980999e+00 0 0 0
65 65 8 0.0000000000000000e+00 -8.2581608240949542e+00 -2.1776917244794838e+00 4.9599271137255565e+00 0 0 0
964 790 9 4.1699999999999998e-01 -1.0619283476317371e+01 -3.1326341380995792e+00 4.5091852412316511e+00 1 0 0
383 596 9 4.1699999999999998e-01 -1.0327321712215587e+01 -2.8813609816557082e+00 6.4352566575795231e+00 0 0 0
347 584 9 4.1699999999999998e-01 -9.9583970932760693e+00 -5.7752804145746151e+00 6.5859882220495347e+00 0 0 0
187 187 8 0.0000000000000000e+00 -1.9785410101944949e+00 -6.2043145973972349e+00 7.0844421007848171e+00 0 0 0
212 212 8 0.0000000000000000e+00 -2.0529538945549355e+00 -1.8633290799224250e-01 4.9054151000033226e+00 0 0 0
67 67 8 0.0000000000000000e+00 -6.2022901965900790e+00 -2.1469651522828790e+00 6.9515743849822407e+00 0 0 0
159 159 8 0.0000000000000000e+00 -1.9888022936620882e+00 -1.0406149898864507e+01 2.9996161683363050e+00 0 0 0
211 211 8 0.0000000000000000e+00 -1.9452500065425449e+00 -2.1627118591236232e+00 7.0656860014459610e+00 0 0 0
706 704 9 4.1699999999999998e-01 -1.0707424101054110e+01 -1.2424175537589701e+00 3.6856220821704984e+00 1 -1 -1
704 704 10 -8.3399999999999996e-01 -1.0524674272255448e+01 -1.9335170525999277e+00 3.0490564300633900e+00 1 -1 -1
382 596 10 -8.3399999999999996e-01 -1.0447871115689649e+01 -2.2506276492335910e+00 7.1450982968613266e+00 0 0 0
959 789 10 -8.3399999999999996e-01 -1.0617836998401325e+01 -1.5230827071812678e-01 5.2371794433414003e+00 1 0 0
162 162 8 0.0000000000000000e+00 -4.0668236121483163e+00 -8.1801303569128923e+00 7.0801180542954532e+00 0 0 0
42 42 8 0.0000000000000000e+00 -8.2413376176688242e+00 -4.2956710624371999e+00 7.0343295916940320e+00 0 0 0
775 727 9 4.1699999999999998e-01 -1.0737916568888586e+01 -1.1569189235969692e+01 5.7050594021848537e+00 1 0 -1
210 210 8 0.0000000000000000e+00 -4.0759093194572360e+00 -1.0103700481708359e-01 6.9097745453316692e+00 0 0 0
962 790 10 -8.3399999999999996e-01 -1.0811581636326885e+01 -4.0125220560937365e+00 4.8333002174827318e+00 1 0 0
186 186 8 0.0000000000000000e+00 -3.9941545389744060e+00 -4.1771075347473117e+00 6.9704125627291935e+00 0 0 0
63 63 8 0.0000000000000000e+00 -6.2084615944718848e+00 -2.1212758401525766e+00 3.0326901420677657e+00 0 0 0
158 158 8 0.0000000000000000e+00 -4.0965490748549689e+00 -8.1851908121388011e+00 2.9079714602823787e+00 0 0 0
19 19 8 0.0000000000000000e+00 -6.1461511266034856e+00 -1.0230113125744671e+01 6.9699694031464583e+00 0 0 0
188 188 8 0.0000000000000000e+00 -1.8628871227483068e+00 -4.1878320166272269e+00 4.9291657896848289e+00 0 0 0
18 18 8 0.0000000000000000e+00 -8.1748010212075126e+00 -8.1114269020604830e+00 7.2002324144130085e+00 0 0 0
183 183 8 0.0000000000000000e+00 -1.9371549611448180e+00 -6.2741448814776080e+00 2.9897245198549793e+00 0 0 0
39 39 8 0.0000000000000000e+00 -6.1855027518089916e+00 -6.2065939275631061e+00 3.1183493300182255e+00 0 0 0
20 20 8 0.0000000000000000e+00 -6.0497274853528582e+00 -8.2333059107139714e+00 5.0654703274622550e+00 0 0 0
206 206 8 0.0000000000000000e+00 -4.2528041529007368e+00 -8.8603679289141882e-02 2.9211178406454708e+00 0 0 0
38 38 8 0.0000000000000000e+00 -8.2874253164626346e+00 -4.3007306202331952e+00 2.9133197002047555e+00 0 0 0
44 44 8 0.0000000000000000e+00 -6.1704813459784509e+00 -4.2125796383397160e+00 4.9834651288909209e+00 0 0 0
207 207 8 0.0000000000000000e+00 -2.0686345462671372e+00 -2.1698945557598535e+00 2.8810925797213578e+00 0 0 0
164 164 8 0.0000000000000000e+00 -2.0421062886644545e+00 -8.2278968874781757e+00 5.0135764481522855e+00 0 0 0
68 68 8 0.0000000000000000e+00 -6.1290110120690828e+00 -1.2220551530225468e-01 5.0979709091204271e+00 0 0 0
14 14 8 0.0000000000000000e+00 -8.2807988417099896e+00 -8.1886358625683542e+00 3.0191025433911838e+00 0 0 0
161 161 8 0.0000000000000000e+00 -4.0829089571518926e+00 -1.0322661859486335e+01 5.0871372586455434e+00 0 0 0
182 182 8 0.0000000000000000e+00 -3.9060620847952965e+00 -4.2894603635065653e+00 2.9279728018942603e+00 0 0 0
960 789 9 4.1699999999999998e-01 -1.0869836035504376e+01 -8.5128171304524169e-01 5.8406398439236371e+00 1 0 0
185 185 8 0.0000000000000000e+00 -4.0419806135887200e+00 -6.1330646838416563e+00 4.9782300455139987e+00 0 0 0
66 66 8 0.0000000000000000e+00 -8.1706248144042686e+00 -1.0192664234760995e-01 6.9923284481489381e+00 0 0 0
1128 845 9 4.1699999999999998e-01 -1.0874570938109416e+01 -9.6988889266799720e+00 3.7667075514303168e+00 1 1 0
209 209 8 0.0000000000000000e+00 -4.0193998105343667e+00 -2.2004084462091060e+00 4.9331143864430524e+00 0 0 0
381 595 9 4.1699999999999998e-01 -1.1175506253027903e+01 -7.3444094997929863e+00 4.2506279497235502e+00 0 0 0
15 15 8 0.0000000000000000e+00 -6.1230874856185880e+00 -1.0209589151196202e+01 3.0408747780392318e+00 0 0 0
379 595 10 -8.3399999999999996e-01 -1.1153819098291612e+01 -8.0263689256331379e+00 4.9219645679135926e+00 0 0 0
1127 845 10 -8.3399999999999996e-01 -1.0877383117158240e+01 -1.0407299451555765e+01 3.1229852005303536e+00 1 1 0
1129 845 9 4.1699999999999998e-01 -1.1017686848540151e+01 -1.1200659431560567e+01 3.6398281650882116e+00 1 1 0
62 62 8 0.0000000000000000e+00 -8.2961124396099866e+00 -8.0245198878580601e-02 3.1041033870150816e+00 0 0 0
729 712 9 4.1699999999999998e-01 -1.0140092487501432e+01 -9.4222590274434399e+00 6.4344265068689559e+00 1 1 -1
346 584 10 -8.3399999999999996e-01 -1.0606303605224976e+01 -6.3281030796265076e+00 7.0228361293584927e+00 0 0 0
950 786 10 -8.3399999999999996e-01 -1.0594577089847384e+01 -6.0507004806357223e+00 2.9526948998140012e+00 1 0 0
326 289 1 8.9999999999999997e-02 -1.1831920900794674e-01 -3.9187362557599231e-01 6.5558612840820416e+00 0 0 0
963 790 9 4.1699999999999998e-01 -1.1721678150887405e+01 -4.1677764716504591e+00 4.5806101867443232e+00 1 0 0
730 712 9 4.1699999999999998e-01 -1.1441690002272413e+01 -9.7699130455029390e+00 7.1249884428881929e+00 1 1 -1
314 289 1 8.9999999999999997e-02 -2.2263661578061922e-04 -3.8092976045951223e+00 2.6368568046206620e+00 0 0 0
140 140 8 0.0000000000000000e+00 -6.2211496639119481e+00 -1.2212537132532839e+01 4.9054851233080914e+00 0 1 0
348 584 9 4.1699999999999998e-01 -1.1337043988725464e+01 -5.7389816640239006e+00 7.2104162245695012e+00 0 0 0
21 21 8 0.0000000000000000e+00 -8.1306105637591131e+00 -1.0227518396555158e+01 9.0706252484803684e+00 0 0 0
22 22 8 0.0000000000000000e+00 -8.1831286806348409e+00 -8.3045364504629493e+00 1.1121139723198414e+01 0 0 0
45 45 8 0.0000000000000000e+00 -8.2354169410104259e+00 -6.2757861740889549e+00 9.2481708763126083e+00 0 0 0
46 46 8 0.0000000000000000e+00 -8.2450673834563002e+00 -4.1593012638307956e+00 1.1067737014321340e+01 0 0 0
69 69 8 0.0000000000000000e+00 -8.1491047311443232e+00 -2.2053339586532497e+00 8.9947625320233016e+00 0 0 0
1137 848 9 4.1699999999999998e-01 -1.0499228432892155e+01 -1.1376279618687828e+01 8.1204991587210777e+00 1 1 0
167 167 8 0.0000000000000000e+00 -2.0031453250717974e+00 -1.0551016132424126e+01 1.1002453522639389e+01 0 0 0
362 589 9 4.1699999999999998e-01 -1.1992275838462778e+01 -5.7443293090943035e+00 1.1032470609281765e+01 0 0 -1
711 706 9 4.1699999999999998e-01 -1.0869489391566477e+01 -9.4230722398712814e+00 1.0293066843350875e+01 1 0 0
361 589 10 -8.3399999999999996e-01 -1.1154636593871688e+01 -6.1464264924619814e+00 1.1262492770309013e+01 0 0 -1
168 168 8 0.0000000000000000e+00 -2.0261438184194014e+00 -8.2288411862958579e+00 9.0707668868846660e+00 0 0 0
1136 848 10 -8.3399999999999996e-01 -1.0717189236815235e+01 -1.1967211621481395e+01 8.8412795047264510e+00 1 1 0
366 590 9 4.1699999999999998e-01 -1.1678710584303309e+01 -2.4610606074174779e+00 1.1348524020927997e+01 0 0 -1
712 706 9 4.1699999999999998e-01 -1.0609570238356534e+01 -1.0913284979777512e+01 1.0353093635960601e+01 1 0 0
970 792 9 4.1699999999999998e-01 -1.0608102159611507e+01 -4.6074984762680611e+00 9.7933534715452986e+00 1 0 0
839 749 10 -8.3399999999999996e-01 -1.0466941871824782e+01 -8.0671971903276294e+00 9.2223353415161764e+00 1 2 1
841 749 9 4.1699999999999998e-01 -1.1241868150131483e+01 -7.7786020132752673e+00 8.7402213183670359e+00 1 2 1
710 706 10 -8.3399999999999996e-01 -1.0873129259236796e+01 -1.0168502715670924e+01 1.0893526676415922e+01 1 0 0
968 792 10 -8.3399999999999996e-01 -1.0803135278248057e+01 -4.2440226395368770e+00 8.9295946863688247e+00 1 0 0
510 638 9 4.1699999999999998e-01 -1.0134662606789242e+01 -6.0468044211703553e-01 8.7900452314232851e+00 1 1 2
192 192 8 0.0000000000000000e+00 -2.0187251668262531e+00 -4.1366181551782093e+00 9.1883178345177168e+00 0 0 0
509 638 9 4.1699999999999998e-01 -1.1622904381849343e+01 -5.9893097903063997e-01 8.5125590976808780e+00 1 1 2
215 215 8 0.0000000000000000e+00 -1.8850154593674726e+00 -2.0796689411297176e+00 1.1146488818117561e+01 0 0 0
72 72 8 0.0000000000000000e+00 -6.0783191129246790e+00 -5.3514436608409953e-02 8.9163499733549543e+00 0 0 0
364 590 10 -8.3399999999999996e-01 -1.0799440165269447e+01 -2.1633763543815623e+00 1.1581975206728103e+01 0 0 -1
191 191 8 0.0000000000000000e+00 -2.0014374504263861e+00 -6.1494745526769634e+00 1.1105292161069475e+01 0 0 0
23 23 8 0.0000000000000000e+00 -6.0174221736582778e+00 -1.0334599707067149e+01 1.1050861180416504e+01 0 0 0
24 24 8 0.0000000000000000e+00 -6.0607582277198340e+00 -8.2235332578307521e+00 9.1235095806416364e+00 0 0 0
47 47 8 0.0000000000000000e+00 -6.1186586968871222e+00 -6.3253633831483356e+00 1.1241217292473948e+01 0 0 0
48 48 8 0.0000000000000000e+00 -6.1401334599405182e+00 -4.2660060444255707e+00 9.1221411268600932e+00 0 0 0
71 71 8 0.0000000000000000e+00 -6.1801475548155800e+00 -2.1771839484861304e+00 1.1047288415299294e+01 0 0 0
969 792 9 4.1699999999999998e-01 -1.1759171413743431e+01 -4.2351519459980072e+00 8.8832475296644997e+00 1 0 0
165 165 8 0.0000000000000000e+00 -4.0370782834785564e+00 -1.0439814072091048e+01 9.0141674371852734e+00 0 0 0
166 166 8 0.0000000000000000e+00 -3.9934450126706831e+00 -8.3843633925003971e+00 1.1115122698227522e+01 0 0 0