LAMMPS data file via write_data, version 16 Mar 2018, timestep = 500000

1144 atoms
12 atom types
583 bonds
8 bond types
350 angles
13 angle types
132 dihedrals
18 dihedral types

-1.2184878746597368e+01 1.2184878746597368e+01 xlo xhi
-1.2184878746597368e+01 1.2184878746597368e+01 ylo yhi
-1.2184878746597368e+01 1.2184878746597368e+01 zlo zhi

Masses

1 1.008
2 1.008
3 12.011
4 12.011
5 15.9994
6 15.9994
7 32.06
8 196.966
9 1.008
10 15.9994
11 35.45
12 22.9898

Pair Coeffs # lj/charmmfsw/coul/long

1 0.028 2.38761 0.028 2.38761
2 0.024 2.38761 0.024 2.38761
3 0.056 3.58141 0.01 3.38542
4 0.078 3.63487 0.01 3.38542
5 0.1 2.93997 0.1 2.93997
6 0.12 3.02906 0.12 3.02906
7 0.47 3.74177 0.47 3.74177
8 5.29 2.62904 5.29 2.62904
9 0.046 0.400014 0.046 0.400014
10 0.1521 3.15057 0.1521 3.15057
11 0.15 4.04468 0.15 4.04468
12 0.0469 2.42993 0.0469 2.42993

Bond Coeffs # harmonic/omp

1 222.5 1.53
2 222.5 1.528
3 309 1.111
4 340 1.43
5 322 1.111
6 450 0.9572
7 540 1.448
8 250 1.575

Angle Coeffs # charmm/omp

1 58.35 113.6 11.16 2.561
2 58 115 8 2.561
3 26.5 110.1 22.53 2.179
4 75.7 110.1 0 0
5 34.6 110.1 22.53 2.179
6 15 109 27 1.9
7 34.6 110.1 22.53 2.179
8 35.5 109 5.4 1.802
9 60 109.5 0 0
10 35.5 108.4 5.4 1.802
11 55 104.52 0 0
12 130 109.47 35 2.45
13 85 98 0 0

Dihedral Coeffs # charmmfsw

1 0.101 2 0 1
2 0.142 3 180 0
3 0.074 4 0 0
4 0.097 5 0 0
5 0.162 2 0 1
6 0.047 3 180 0
7 0.105 4 0 0
8 0.177 5 0 0
9 0.19 3 0 1
10 0 3 0 1
11 0.16 3 0 1
12 0 3 0 1
13 0 3 0 1
14 0.19 3 0 1
15 0.19 3 0 1
16 0.19 3 0 1
17 0.16 3 0 1
18 0 3 0 1

Atoms # full

1 1 8 0.0000000000000000e+00 -8.2500545574744297e+00 -1.0478597650608750e+01 -1.0860606439610935e+01 0 0 0
2 2 8 0.0000000000000000e+00 -8.2760540407169110e+00 -8.4003003138343022e+00 -8.8849583263153633e+00 0 0 0
25 25 8 0.0000000000000000e+00 -8.3206300332268466e+00 -6.3925436611202420e+00 -1.0756761859539468e+01 0 0 0
26 26 8 0.0000000000000000e+00 -8.1652761134157039e+00 -4.2323982070693917e+00 -8.8877600105955850e+00 0 0 0
49 49 8 0.0000000000000000e+00 -8.3023739594015513e+00 -2.1646855485356085e+00 -1.0729574478185050e+01 0 0 0
52 52 8 0.0000000000000000e+00 -6.1844455766186206e+00 -2.6942369788573828e-01 -1.0802160341990472e+01 0 0 0
336 580 9 4.1699999999999998e-01 -1.1805646178566574e+01 -7.9172549817421336e+00 -1.0581519032333903e+01 0 0 0
147 147 8 0.0000000000000000e+00 -2.1379318468541992e+00 -1.0540083381232154e+01 -8.8045790801197441e+00 0 0 0
335 580 9 4.1699999999999998e-01 -1.1055951522822058e+01 -7.4177087225398779e+00 -1.1797980615121986e+01 0 0 0
171 171 8 0.0000000000000000e+00 -2.0554083396808576e+00 -6.4048196434805389e+00 -8.7408475351779611e+00 0 0 0
50 50 8 0.0000000000000000e+00 -8.2800811216152947e+00 -1.3389210106801386e-01 -8.7461392458307401e+00 0 0 0
195 195 8 0.0000000000000000e+00 -2.0235916536269496e+00 -2.3017761831117127e+00 -8.8462675448115196e+00 0 0 0
926 778 10 -8.3399999999999996e-01 -1.0926022366181142e+01 -5.9559755684223026e+00 -8.5864465217729169e+00 1 0 0
420 608 9 4.1699999999999998e-01 -1.1007343537398267e+01 -8.3064658166044580e-01 -1.0347811459156423e+01 0 0 1
715 707 9 4.1699999999999998e-01 -1.0852658595258776e+01 -3.4421263829163902e+00 -1.1340220164725018e+01 1 -1 1
927 778 9 4.1699999999999998e-01 -1.1612807823615894e+01 -6.4674402311333692e+00 -9.0139381784333530e+00 1 0 0
714 707 9 4.1699999999999998e-01 -1.0768742829460463e+01 -4.9189758105007702e+00 -1.1661534534781723e+01 1 -1 1
196 196 8 0.0000000000000000e+00 -1.9575467372285313e+00 -2.0420184989347767e-01 -1.0963813678147504e+01 0 0 0
194 194 8 0.0000000000000000e+00 -4.0499358133294212e+00 -1.6117321222343506e-01 -8.7347283442863137e+00 0 0 0
996 801 9 4.1699999999999998e-01 -1.0757537597713895e+01 -8.4714673363268034e-01 -7.5915437916186113e+00 1 0 0
172 172 8 0.0000000000000000e+00 -1.8942878448801590e+00 -4.4115462895137734e+00 -1.0761878718941809e+01 0 0 0
798 735 9 4.1699999999999998e-01 -1.1141934047845336e+01 -2.6620292199804148e+00 -8.1329551786338090e+00 1 2 1
148 148 8 0.0000000000000000e+00 -2.1528099754923531e+00 -8.4417784554895707e+00 -1.0888202614529648e+01 0 0 0
987 798 9 4.1699999999999998e-01 -1.0412338199671190e+01 -9.6422351738994294e+00 -9.3547253217535697e+00 1 -1 0
3 3 8 0.0000000000000000e+00 -6.1796369424926567e+00 -1.0444683724013316e+01 -8.7345772724243087e+00 0 0 0
4 4 8 0.0000000000000000e+00 -6.1640662002379436e+00 -8.2701182180726924e+00 -1.0885285358820255e+01 0 0 0
27 27 8 0.0000000000000000e+00 -6.1995753043577526e+00 -6.2910662116228444e+00 -8.7989304982330321e+00 0 0 0
28 28 8 0.0000000000000000e+00 -6.1770390465865805e+00 -4.2418186417598580e+00 -1.0846332265113855e+01 0 0 0
51 51 8 0.0000000000000000e+00 -6.1528073882974104e+00 -2.2659107154726552e+00 -8.7515535002105160e+00 0 0 0
334 580 10 -8.3399999999999996e-01 -1.1105551350277890e+01 -8.1547122139797459e+00 -1.1189385852554219e+01 0 0 0
145 145 8 0.0000000000000000e+00 -4.1318030557003560e+00 -1.0632256768266796e+01 -1.0825746987563345e+01 0 0 0
146 146 8 0.0000000000000000e+00 -4.1727720474164567e+00 -8.3539776469505433e+00 -8.8144604031049489e+00 0 0 0
169 169 8 0.0000000000000000e+00 -4.1208141429965188e+00 -6.3278328663581895e+00 -1.0833668094267889e+01 0 0 0
170 170 8 0.0000000000000000e+00 -4.1457473545505330e+00 -4.2945890724136433e+00 -8.7981436102785100e+00 0 0 0
193 193 8 0.0000000000000000e+00 -4.0576174272269316e+00 -2.2254819100230172e+00 -1.0788063793737781e+01 0 0 0
799 735 9 4.1699999999999998e-01 -1.0555647306348742e+01 -2.7176079165424927e+00 -9.5274259336550564e+00 1 2 1
986 798 10 -8.3399999999999996e-01 -1.0783306420487575e+01 -1.0372089122284727e+01 -8.8590270046068404e+00 1 -1 0
797 735 10 -8.3399999999999996e-01 -1.0799324003189311e+01 -2.1060973618418597e+00 -8.8326619113536999e+00 1 2 1
713 707 10 -8.3399999999999996e-01 -1.0845683887179211e+01 -4.3067665609115187e+00 -1.0929891787207156e+01 1 -1 1
928 778 9 4.1699999999999998e-01 -1.0551082133725163e+01 -5.4239242144611231e+00 -9.2881354164958552e+00 1 0 0
988 798 9 4.1699999999999998e-01 -1.1239166030088944e+01 -9.9576171990816675e+00 -8.1266136096399357e+00 1 -1 0
456 620 9 4.1699999999999998e-01 -1.1196532296687469e+01 -1.1683437660304289e+01 -1.0165967399641197e+01 0 1 0
332 579 9 4.1699999999999998e-01 -1.0724519163917162e+01 -1.1763633375914992e+01 -7.6095639069919736e+00 0 0 0
338 581 9 4.1699999999999998e-01 -1.0889848872738400e+01 -7.4796267845650233e+00 -7.3490198073558082e+00 0 0 0
455 620 9 4.1699999999999998e-01 -1.1166083856987793e+01 -1.1768557284869884e+01 -1.1676990819421871e+01 0 1 0
356 587 9 4.1699999999999998e-01 -1.0354084318301734e+01 -9.8798336360278149e+00 -1.1967386861674507e+01 0 0 1
32 32 8 0.0000000000000000e+00 -6.1613210951791082e+00 -4.3446352950958058e+00 -6.7860607290250003e+00 0 0 0
6 6 8 0.0000000000000000e+00 -8.2831327471141254e+00 -8.3292812516152317e+00 -4.8097438976493665e+00 0 0 0
482 629 9 4.1699999999999998e-01 -1.0718831731903014e+01 -9.6337209679292144e+00 -5.4574894522560271e+00 1 0 -2
945 784 9 4.1699999999999998e-01 -1.0668341013142875e+01 -5.5477685132000536e+00 -3.8769707236473021e+00 1 -1 0
30 30 8 0.0000000000000000e+00 -8.2110879743362091e+00 -4.2597152723487133e+00 -4.7224247816988054e+00 0 0 0
33 33 8 0.0000000000000000e+00 -8.3018994090562916e+00 -6.4290254552734076e+00 -2.6057792980048795e+00 0 0 0
399 601 9 4.1699999999999998e-01 -1.1064315190911042e+01 -2.2353239858188658e+00 -5.3795470692155636e+00 0 0 0
198 198 8 0.0000000000000000e+00 -4.1309587865452606e+00 -2.9499490354107039e-01 -4.6683160692162877e+00 0 0 0
370 592 10 -8.3399999999999996e-01 -1.0576864014996957e+01 -4.1443726523722582e+00 -2.8065938733041111e+00 0 0 0
53 53 8 0.0000000000000000e+00 -8.3466364635262291e+00 -2.2848438361941437e+00 -6.9155780199442658e+00 0 0 0
156 156 8 0.0000000000000000e+00 -2.1545796432341771e+00 -8.3772569230010987e+00 -2.6578531848444484e+00 0 0 0
204 204 8 0.0000000000000000e+00 -2.1487806008087240e+00 -4.5496398824329098e-01 -2.7811504830525351e+00 0 0 0
56 56 8 0.0000000000000000e+00 -6.1683626649723466e+00 -2.2307571362837031e-01 -6.7793432096150825e+00 0 0 0
177 177 8 0.0000000000000000e+00 -4.2674419206926517e+00 -6.4301902123009462e+00 -2.6755032276921789e+00 0 0 0
149 149 8 0.0000000000000000e+00 -4.1413417846923046e+00 -1.0482441977510277e+01 -6.7528835985063838e+00 0 0 0
201 201 8 0.0000000000000000e+00 -4.2465370981893047e+00 -2.3690015587938653e+00 -2.6110678548233022e+00 0 0 0
199 199 8 0.0000000000000000e+00 -2.1736848025217679e+00 -2.3445417634584231e+00 -4.7742000047776330e+00 0 0 0
1101 836 9 4.1699999999999998e-01 -1.0746465318429719e+01 -7.8035290734585452e+00 -3.6127957723320083e+00 1 0 1
995 801 10 -8.3399999999999996e-01 -1.0504677993271793e+01 -1.9861349445508125e-01 -6.9346640880733936e+00 1 0 0
153 153 8 0.0000000000000000e+00 -4.1893823956328209e+00 -1.0395750346745903e+01 -2.7458742825808944e+00 0 0 0
200 200 8 0.0000000000000000e+00 -1.8620512922507295e+00 -3.1249797737482155e-01 -6.7921475712977442e+00 0 0 0
5 5 8 0.0000000000000000e+00 -8.4348021908203901e+00 -1.0370746357866018e+01 -6.8740557135329725e+00 0 0 0
9 9 8 0.0000000000000000e+00 -8.3115190856330887e+00 -1.0440998420876214e+01 -2.7087771558129354e+00 0 0 0
944 784 10 -8.3399999999999996e-01 -1.0856568858502849e+01 -6.2113081583604792e+00 -4.5405277139965143e+00 1 -1 0
54 54 8 0.0000000000000000e+00 -8.2358904782848228e+00 -2.4262331173869356e-01 -4.8779815738976708e+00 0 0 0
197 197 8 0.0000000000000000e+00 -4.0703173450635699e+00 -2.2082533653887086e+00 -6.7585246055625765e+00 0 0 0
984 797 9 4.1699999999999998e-01 -1.1839894467976398e+01 -3.9082608215357588e+00 -6.0411682337172454e+00 1 0 0
176 176 8 0.0000000000000000e+00 -2.1788840985289628e+00 -4.3969503416377247e+00 -6.7366801089859942e+00 0 0 0
371 592 9 4.1699999999999998e-01 -1.1092527580256782e+01 -3.6000462435307625e+00 -3.4014230120570712e+00 0 0 0
397 601 10 -8.3399999999999996e-01 -1.1460929961982851e+01 -2.1769576169176634e+00 -4.5104581976305989e+00 0 0 0
8 8 8 0.0000000000000000e+00 -6.4021845886249240e+00 -8.3747771189859979e+00 -6.8220239495237980e+00 0 0 0
175 175 8 0.0000000000000000e+00 -2.1590394406260707e+00 -6.4409792295854658e+00 -4.7508810245276267e+00 0 0 0
339 581 9 4.1699999999999998e-01 -1.0702738177445173e+01 -7.3809154930931511e+00 -5.8501497603477768e+00 0 0 0
983 797 10 -8.3399999999999996e-01 -1.1108654457745493e+01 -3.8380472959051541e+00 -6.6546661014020296e+00 1 0 0
7 7 8 0.0000000000000000e+00 -6.1948164446946263e+00 -1.0334749475476627e+01 -4.8234728763397445e+00 0 0 0
151 151 8 0.0000000000000000e+00 -1.9384072315892400e+00 -1.0437282085532061e+01 -4.7571045882120773e+00 0 0 0
640 682 12 1.0000000000000000e+00 -1.1203965548559101e+01 -1.0473521077962250e+01 -2.6064019450231690e+00 1 0 0
31 31 8 0.0000000000000000e+00 -6.3615232736686709e+00 -6.3529715758419041e+00 -4.7862599057549442e+00 0 0 0
174 174 8 0.0000000000000000e+00 -4.1585393656158001e+00 -4.4156358395406352e+00 -4.7068426078989871e+00 0 0 0
57 57 8 0.0000000000000000e+00 -8.2302237689753888e+00 -2.1477452158313231e+00 -2.7117820032079560e+00 0 0 0
55 55 8 0.0000000000000000e+00 -6.1793352958568022e+00 -2.2369914036703484e+00 -4.8164405302358864e+00 0 0 0
152 152 8 0.0000000000000000e+00 -2.0349745753348625e+00 -8.5139213401911817e+00 -6.9092237526695612e+00 0 0 0
173 173 8 0.0000000000000000e+00 -4.1476036554807134e+00 -6.4102105524949806e+00 -6.7742637716725707e+00 0 0 0
180 180 8 0.0000000000000000e+00 -1.9769377233922736e+00 -4.3395291635935109e+00 -2.7194324448883318e+00 0 0 0
150 150 8 0.0000000000000000e+00 -4.1867137968212731e+00 -8.4045439144220122e+00 -4.7396264704729498e+00 0 0 0
12 12 8 0.0000000000000000e+00 -6.2653090565716711e+00 -8.4673176874770348e+00 -2.7108363786955518e+00 0 0 0
29 29 8 0.0000000000000000e+00 -8.4163133005797306e+00 -6.2104576830098157e+00 -6.8015899474179253e+00 0 0 0
337 581 10 -8.3399999999999996e-01 -1.0832398817599763e+01 -8.0133954067042783e+00 -6.5566747656788191e+00 0 0 0
398 601 9 4.1699999999999998e-01 -1.1279010323384407e+01 -1.2822805399521009e+00 -4.2232623257865445e+00 0 0 0
60 60 8 0.0000000000000000e+00 -6.2235754240504546e+00 -2.5114085063213665e-01 -2.8010423222267864e+00 0 0 0
481 629 10 -8.3399999999999996e-01 -1.0922645969697006e+01 -1.0424551003236829e+01 -4.9584220334066940e+00 1 0 -2
483 629 9 4.1699999999999998e-01 -1.0981556997187404e+01 -1.1115837251185610e+01 -5.6177197951964315e+00 1 0 -2
36 36 8 0.0000000000000000e+00 -6.2606596016591567e+00 -4.3390679704098929e+00 -2.6321691701119185e+00 0 0 0
985 797 9 4.1699999999999998e-01 -1.1073102680954047e+01 -4.6924820570145371e+00 -7.0844308657209369e+00 1 0 0
946 784 9 4.1699999999999998e-01 -1.1752093774273028e+01 -6.0230114393738283e+00 -4.8208928130327910e+00 1 -1 0
403 603 10 -8.3399999999999996e-01 -1.0447667033428159e+01 -1.9855889436699670e-01 -2.5976060226246709e+00 0 0 0
1100 836 10 -8.3399999999999996e-01 -1.0693619177953490e+01 -8.2129317636413042e+00 -2.7493004384266353e+00 1 0 1
627 677 9 4.1699999999999998e-01 -6.7882473346388750e-02 -7.1868939443886530e+00 -6.1792865851622647e+00 0 0 0
10 10 8 0.0000000000000000e+00 -8.2622010773798795e+00 -8.4763613059020724e+00 -7.0617155307905577e-01 0 0 0
34 34 8 0.0000000000000000e+00 -8.4129315783300989e+00 -4.3980686514572485e+00 -6.5452877398800524e-01 0 0 0
854 754 10 -8.3399999999999996e-01 -1.0604767825199584e+01 -6.1691710787001455e+00 -6.8588990941908001e-01 1 1 1
888 765 9 4.1699999999999998e-01 -1.1245224959955408e+01 -7.8442225439602806e+00 2.1421951236397270e+00 1 0 0
855 754 9 4.1699999999999998e-01 -1.0688998522720246e+01 -5.5762189981204262e+00 -1.4324371881270235e+00 1 1 1
889 765 9 4.1699999999999998e-01 -1.0717292698594541e+01 -7.9054352858358206e+00 7.2483399716318964e-01 1 0 0
638 681 9 4.1699999999999998e-01 -1.0723867442660811e+01 -1.7765205018638390e+00 1.6464435967641577e-02 1 -1 0
887 765 10 -8.3399999999999996e-01 -1.0739555835050572e+01 -8.3964520661987692e+00 1.5460705410687421e+00 1 0 0
376 594 10 -8.3399999999999996e-01 -1.1032573020020243e+01 -4.2243857779498519e+00 1.2928963321480982e+00 0 0 0
208 208 8 0.0000000000000000e+00 -2.0063469763445223e+00 -3.7174728891745090e-01 1.2924113272678515e+00 0 0 0
184 184 8 0.0000000000000000e+00 -1.9747682406470997e+00 -4.2952133405858071e+00 1.4333365341618123e+00 0 0 0
64 64 8 0.0000000000000000e+00 -6.1675154216991146e+00 -4.6254878999068616e-01 1.3628968298487987e+00 0 0 0
13 13 8 0.0000000000000000e+00 -8.3811151797320989e+00 -1.0475830000540705e+01 1.3236921822767336e+00 0 0 0
37 37 8 0.0000000000000000e+00 -8.4197956448828535e+00 -6.5261176282647178e+00 1.3571220901879233e+00 0 0 0
61 61 8 0.0000000000000000e+00 -8.3961701026278206e+00 -2.4609908965076475e+00 1.4023442354447901e+00 0 0 0
372 592 9 4.1699999999999998e-01 -1.0165278713828476e+01 -3.5217085976136833e+00 -2.2075048110934574e+00 0 0 0
1102 836 9 4.1699999999999998e-01 -1.0427505503714164e+01 -7.5042735212220730e+00 -2.1636267523239567e+00 1 0 1
378 594 9 4.1699999999999998e-01 -1.1104033256317685e+01 -3.5938354180887924e+00 5.7642983802413283e-01 0 0 0
341 582 9 4.1699999999999998e-01 -1.0652530440588251e+01 -1.1106777662817441e+01 -5.5174356553131076e-02 0 0 0
179 179 8 0.0000000000000000e+00 -2.0794755662822482e+00 -6.2032499414355016e+00 -7.5552515354563887e-01 0 0 0
160 160 8 0.0000000000000000e+00 -2.0434363255161294e+00 -8.3191245155664024e+00 1.2658366714420630e+00 0 0 0
205 205 8 0.0000000000000000e+00 -4.2017005247596773e+00 -2.3100187439119821e+00 1.2881146653821904e+00 0 0 0
637 681 10 -8.3399999999999996e-01 -1.1043081251993236e+01 -2.3545809454956430e+00 -6.7633420338508898e-01 1 -1 0
340 582 10 -8.3399999999999996e-01 -1.0908133546772138e+01 -1.0231339366237881e+01 -3.4550932038367854e-01 0 0 0
181 181 8 0.0000000000000000e+00 -4.0999804389770471e+00 -6.3773372172563061e+00 1.3154298445730355e+00 0 0 0
157 157 8 0.0000000000000000e+00 -4.1884080813931837e+00 -1.0429713075525221e+01 1.2764106859365771e+00 0 0 0
856 754 9 4.1699999999999998e-01 -1.0498003779293979e+01 -5.5907405881625412e+00 6.9120384225371367e-02 1 1 1
11 11 8 0.0000000000000000e+00 -6.2349347321212978e+00 -1.0539937191374550e+01 -6.6649244861975632e-01 0 0 0
35 35 8 0.0000000000000000e+00 -6.2729060372716479e+00 -6.3547795032188468e+00 -6.6151882804219397e-01 0 0 0
59 59 8 0.0000000000000000e+00 -6.2957583666555070e+00 -2.3239321091091831e+00 -6.5496831535151578e-01 0 0 0
154 154 8 0.0000000000000000e+00 -4.1104109868605754e+00 -8.3405161327086290e+00 -6.1299991895612571e-01 0 0 0
178 178 8 0.0000000000000000e+00 -4.2136813014230512e+00 -4.3112824555783256e+00 -7.2303084082813562e-01 0 0 0
155 155 8 0.0000000000000000e+00 -2.1367734568660453e+00 -1.0488174469416478e+01 -6.5425570449712112e-01 0 0 0
16 16 8 0.0000000000000000e+00 -6.2042738910645792e+00 -8.4494834160343846e+00 1.2993845741616390e+00 0 0 0
40 40 8 0.0000000000000000e+00 -6.2815141064810627e+00 -4.4002831614423492e+00 1.4468648768096148e+00 0 0 0
203 203 8 0.0000000000000000e+00 -2.0952165112244856e+00 -2.4261731356410685e+00 -6.6525898598139577e-01 0 0 0
202 202 8 0.0000000000000000e+00 -4.1572652961415528e+00 -2.8839845903447170e-01 -6.5661497074620989e-01 0 0 0
58 58 8 0.0000000000000000e+00 -8.1907116482338758e+00 -2.2979062862460609e-01 -6.1738808240564325e-01 0 0 0
639 681 9 4.1699999999999998e-01 -1.1158815756765039e+01 -1.7806051860183416e+00 -1.4334216691822323e+00 1 -1 0
342 582 9 4.1699999999999998e-01 -1.0847954418620127e+01 -9.6903481058436771e+00 4.4172002013986678e-01 0 0 0
896 768 10 -8.3399999999999996e-01 -1.0829816724565838e+01 -5.0451639376243307e-01 1.3220310900619623e+00 1 -2 -1
528 644 9 4.1699999999999998e-01 -4.4384985444772340e-01 -6.0823936649979196e+00 2.1642116701499958e+00 0 0 0
351 585 9 4.1699999999999998e-01 -1.1347714605179862e+01 -1.2109190898174564e+01 2.0006450421051110e+00 0 0 0
377 594 9 4.1699999999999998e-01 -1.0530282112519012e+01 -3.7662351843864901e+00 1.9665594017048740e+00 0 0 0
898 768 9 4.1699999999999998e-01 -1.0446486545966701e+01 -1.2127588412960577e-02 5.9633539062287433e-01 1 -2 -1
14 14 8 0.0000000000000000e+00 -8.2280672218298996e+00 -8.4041079770663831e+00 3.3477967459387283e+00 0 0 0
17 17 8 0.0000000000000000e+00 -8.2697117222129037e+00 -1.0281817692866058e+01 5.3873768368306028e+00 0 0 0
347 584 9 4.1699999999999998e-01 -1.0943078181644575e+01 -9.8117633493559033e+00 4.1272369350980416e+00 0 0 0
38 38 8 0.0000000000000000e+00 -8.3675253534977188e+00 -4.4579832814112228e+00 3.3670381229019704e+00 0 0 0
41 41 8 0.0000000000000000e+00 -8.2661693179154945e+00 -6.4807991445211979e+00 5.4109097494428351e+00 0 0 0
961 789 9 4.1699999999999998e-01 -1.0820232900784685e+01 -1.7302755208888261e+00 2.7793336790097261e+00 1 0 0
452 619 9 4.1699999999999998e-01 -1.1029427141722607e+01 -1.1798294280481475e+01 4.8007572315868519e+00 0 2 0
65 65 8 0.0000000000000000e+00 -8.3057868293064701e+00 -2.3466298388290916e+00 5.4072270066807864e+00 0 0 0
354 586 9 4.1699999999999998e-01 -1.0950867598237789e+01 -9.9994837030231452e+00 6.5126362307354970e+00 0 0 0
959 789 10 -8.3399999999999996e-01 -1.0983991782832506e+01 -2.3201796250205504e+00 3.5150097569590102e+00 1 0 0
68 68 8 0.0000000000000000e+00 -6.1759922308032280e+00 -3.3448725283024494e-01 5.2598345357573901e+00 0 0 0
188 188 8 0.0000000000000000e+00 -1.9937874213157176e+00 -4.4130304442009933e+00 5.5452135448373685e+00 0 0 0
183 183 8 0.0000000000000000e+00 -2.0584736130680508e+00 -6.3296173494339314e+00 3.4573437937698799e+00 0 0 0
159 159 8 0.0000000000000000e+00 -2.1175885378561965e+00 -1.0416921674902518e+01 3.2763094807747581e+00 0 0 0
383 596 9 4.1699999999999998e-01 -1.0974810138096709e+01 -1.3304062181630822e+00 6.9854666503809586e+00 0 0 0
960 789 9 4.1699999999999998e-01 -1.0566995885720676e+01 -1.8925865562792392e+00 4.2628741168096713e+00 1 0 0
348 584 9 4.1699999999999998e-01 -1.0876543822377450e+01 -9.8241528340243640e+00 2.6150246820461387e+00 0 0 0
161 161 8 0.0000000000000000e+00 -4.2048477321026994e+00 -1.0565422991076733e+01 5.3089102748319998e+00 0 0 0
346 584 10 -8.3399999999999996e-01 -1.1093645334225059e+01 -1.0374170408018877e+01 3.3675985440853093e+00 0 0 0
158 158 8 0.0000000000000000e+00 -4.1158774056368959e+00 -8.3936956598945223e+00 3.4165457936959047e+00 0 0 0
164 164 8 0.0000000000000000e+00 -2.0000301306482733e+00 -8.4808651717861547e+00 5.4439764785065758e+00 0 0 0
182 182 8 0.0000000000000000e+00 -4.1607717574000560e+00 -4.3206105129200987e+00 3.3374865411664398e+00 0 0 0
207 207 8 0.0000000000000000e+00 -2.1657330175139347e+00 -2.3688610157277576e+00 3.3631323485804128e+00 0 0 0
962 790 10 -8.3399999999999996e-01 -1.1014956632094123e+01 -4.2723033239839507e+00 5.5718073617894301e+00 1 0 0
212 212 8 0.0000000000000000e+00 -2.0868682747214891e+00 -3.8765260899090137e-01 5.3345746285110014e+00 0 0 0
963 790 9 4.1699999999999998e-01 -1.1271612891384093e+01 -3.7109604977781601e+00 4.8403411287901381e+00 1 0 0
384 596 9 4.1699999999999998e-01 -1.0828030533413353e+01 -2.8176593851926164e+00 6.7448398362870154e+00 0 0 0
379 595 10 -8.3399999999999996e-01 -1.0705397136144084e+01 -8.4171290684109579e+00 5.4881718817869238e+00 0 0 0
185 185 8 0.0000000000000000e+00 -4.0513092452560642e+00 -6.3726261194146607e+00 5.4158347118425620e+00 0 0 0
209 209 8 0.0000000000000000e+00 -4.1612761184279439e+00 -2.3869928739666015e+00 5.4221552841607465e+00 0 0 0
964 790 9 4.1699999999999998e-01 -1.0495684942663274e+01 -4.9683419231548855e+00 5.1694281693363404e+00 1 0 0
15 15 8 0.0000000000000000e+00 -6.2067226057928790e+00 -1.0443257000935164e+01 3.3404478150770238e+00 0 0 0
206 206 8 0.0000000000000000e+00 -4.0300855879244910e+00 -4.1019862786167138e-01 3.3661564571805815e+00 0 0 0
20 20 8 0.0000000000000000e+00 -6.1141905741251907e+00 -8.4607550178976183e+00 5.3785843965663442e+00 0 0 0
39 39 8 0.0000000000000000e+00 -6.2074002718977406e+00 -6.4406669712853644e+00 3.2981563045474633e+00 0 0 0
950 786 10 -8.3399999999999996e-01 -1.1271061229688968e+01 -6.1032244993868359e+00 3.4416555701476188e+00 1 0 0
44 44 8 0.0000000000000000e+00 -6.2134649906293502e+00 -4.4561647743152362e+00 5.3878813759643993e+00 0 0 0
63 63 8 0.0000000000000000e+00 -6.2770676106876016e+00 -2.4458304452821764e+00 3.4149659435932573e+00 0 0 0
381 595 9 4.1699999999999998e-01 -1.1030674202772691e+01 -7.9555175511250393e+00 6.2609155532670027e+00 0 0 0
62 62 8 0.0000000000000000e+00 -8.3525353093725325e+00 -2.9836624208664020e-01 3.4781111364324069e+00 0 0 0
380 595 9 4.1699999999999998e-01 -1.0692613883510987e+01 -7.7526814001151179e+00 4.7994299870143973e+00 0 0 0
409 605 10 -8.3399999999999996e-01 -1.0635425248705726e+01 -2.7346771111867518e-01 5.6257522235479538e+00 0 0 0
951 786 9 4.1699999999999998e-01 -1.1259498846409752e+01 -5.4708406876776952e+00 2.7233396313143672e+00 1 0 0
952 786 9 4.1699999999999998e-01 -1.2082901439245656e+01 -6.5942888422153372e+00 3.3159926940332038e+00 1 0 0
386 597 9 4.1699999999999998e-01 -1.0871970983613336e+01 -5.7051579715716763e+00 6.9543370583725004e+00 0 0 0
319 289 1 8.9999999999999997e-02 -4.8362055813070626e-02 -2.5325739269658829e+00 5.4892219719527144e+00 0 0 0
353 586 9 4.1699999999999998e-01 -1.0687332324158925e+01 -1.1357117679716513e+01 7.1280595061041812e+00 0 0 0
317 289 1 8.9999999999999997e-02 -1.3280305982653573e-01 -3.7630550236405700e+00 3.3826840661878368e+00 0 0 0
21 21 8 0.0000000000000000e+00 -8.2874408722807527e+00 -1.0496049995556039e+01 9.4724457687106760e+00 0 0 0
22 22 8 0.0000000000000000e+00 -8.3479385507157495e+00 -8.3869080821601365e+00 1.1496722519296737e+01 0 0 0
45 45 8 0.0000000000000000e+00 -8.2917988458203631e+00 -6.3843438147036826e+00 9.4257617417885857e+00 0 0 0
46 46 8 0.0000000000000000e+00 -8.3463514356741797e+00 -4.2347153086370328e+00 1.1465842303732403e+01 0 0 0
69 69 8 0.0000000000000000e+00 -8.2882172112449801e+00 -2.3188458154367062e+00 9.3106729816896259e+00 0 0 0
382 596 10 -8.3399999999999996e-01 -1.0865412275145168e+01 -2.1639550591293784e+00 7.4429044201635666e+00 0 0 0
1045 817 9 4.1699999999999998e-01 -1.1032057463078154e+01 -1.2492860278864519e+00 8.9915670305077722e+00 1 0 0
168 168 8 0.0000000000000000e+00 -2.1653432939600687e+00 -8.4512000313824078e+00 9.4716815177962683e+00 0 0 0
72 72 8 0.0000000000000000e+00 -6.1669603590962749e+00 -2.5691041424585137e-01 9.3787649174936494e+00 0 0 0
187 187 8 0.0000000000000000e+00 -1.9633872612366474e+00 -6.3726172412174629e+00 7.5630265247919599e+00 0 0 0
1032 813 9 4.1699999999999998e-01 -1.0297650680950763e+01 -2.1415019111068432e+00 1.1166930955067750e+01 1 0 0
1043 817 10 -8.3399999999999996e-01 -1.0850275247196532e+01 -5.1908429322816474e-01 9.5829911927265083e+00 1 0 0
162 162 8 0.0000000000000000e+00 -4.1161282020257914e+00 -8.5146720026749829e+00 7.3489053692878326e+00 0 0 0
211 211 8 0.0000000000000000e+00 -1.8467817611112505e+00 -2.4225724748968602e+00 7.3482072866076340e+00 0 0 0
970 792 9 4.1699999999999998e-01 -1.0719809105259431e+01 -4.0408202394550781e+00 9.2148058193756821e+00 1 0 0
167 167 8 0.0000000000000000e+00 -1.9955741022644684e+00 -1.0559862451645266e+01 1.1379055938915863e+01 0 0 0
43 43 8 0.0000000000000000e+00 -6.0892608143381484e+00 -6.4298015692555213e+00 7.4592299062861596e+00 0 0 0
976 794 9 4.1699999999999998e-01 -1.0736112253122769e+01 -6.9204272419479915e+00 1.0693781973739663e+01 1 0 0
42 42 8 0.0000000000000000e+00 -8.2643860071590769e+00 -4.4136307119542808e+00 7.3799446932121544e+00 0 0 0
355 587 10 -8.3399999999999996e-01 -1.0503495280009933e+01 -1.0311098930699799e+01 1.1561116183234384e+01 0 0 0
192 192 8 0.0000000000000000e+00 -2.1109306051885302e+00 -4.3706908580920842e+00 9.4821590175207664e+00 0 0 0
191 191 8 0.0000000000000000e+00 -1.9998859847619634e+00 -6.3793349612488308e+00 1.1531375713833624e+01 0 0 0
484 630 10 -8.3399999999999996e-01 -1.1408434912579571e+01 -8.5100460707129280e+00 9.6560296794114766e+00 1 1 -1
215 215 8 0.0000000000000000e+00 -2.0741424195032803e+00 -2.3554430073330490e+00 1.1439218513392214e+01 0 0 0
486 630 9 4.1699999999999998e-01 -1.0921187945235822e+01 -8.9043620967393515e+00 8.9327554907879456e+00 1 1 -1
19 19 8 0.0000000000000000e+00 -6.1622284240040477e+00 -1.0377428322725358e+01 7.4565502081206976e+00 0 0 0
23 23 8 0.0000000000000000e+00 -6.2266906068489307e+00 -1.0495522294340439e+01 1.1422728853383530e+01 0 0 0
24 24 8 0.0000000000000000e+00 -6.1912081067222040e+00 -8.4729800392639820e+00 9.5503508125364700e+00 0 0 0
47 47 8 0.0000000000000000e+00 -6.3096253196345629e+00 -6.2981414452762170e+00 1.1482405330773572e+01 0 0 0
48 48 8 0.0000000000000000e+00 -6.2578603940354656e+00 -4.3360683680151597e+00 9.4596565115701896e+00 0 0 0
71 71 8 0.0000000000000000e+00 -6.0872044234729081e+00 -2.2332386869585559e+00 1.1468312519900353e+01 0 0 0
163 163 8 0.0000000000000000e+00 -2.1218933063143393e+00 -1.0480015754646516e+01 7.4057606127343423e+00 0 0 0
165 165 8 0.0000000000000000e+00 -4.1008718446991317e+00 -1.0556299283546732e+01 9.4189143018969528e+00 0 0 0
166 166 8 0.0000000000000000e+00 -4.1290151226354013e+00 -8.4912332051571386e+00 1.1504919508884486e+01 0 0 0
189 189 8 0.0000000000000000e+00 -4.1275707512371334e+00 -6.4490576240924842e+00 9.4831625503856873e+00 0 0 0
190 190 8 0.0000000000000000e+00 -4.1470128904490604e+00 -4.3863716938729560e+00 1.1516909369459681e+01 0 0 0
213 213 8 0.0000000000000000e+00 -4.1515047267264098e+00 -2.3513156724269262e+00 9.4448056345289455e+00 0 0 0
357 587 9 4.1699999999999998e-01 -1.0955923957884169e+01 -9.6544445652972648e+00 1.1031833735353993e+01 0 0 0
975 794 9 4.1699999999999998e-01 -1.0891385068936325e+01 -5.4150571606054134e+00 1.0660286439170401e+01 1 0 0
968 792 10 -8.3399999999999996e-01 -1.1525205262141046e+01 -3.9508631704283381e+00 9.7239863073774924e+00 1 0 0
387 597 9 4.1699999999999998e-01 -1.2134472266898081e+01 -6.1780044656858140e+00 7.6427274894165240e+00 0 0 0
1031 813 10 -8.3399999999999996e-01 -1.0929250427498941e+01 -2.1634598200688728e+00 1.1885693551051544e+01 1 0 0
216 216 8 0.0000000000000000e+00 -1.9501364334872839e+00 -3.5432390409768821e-01 9.3201892874937879e+00 0 0 0
70 70 8 0.0000000000000000e+00 -8.1709686691977232e+00 -3.4812325662307408e-01 1.1403827267032009e+01 0 0 0
385 597 10 -8.3399999999999996e-01 -1.1243935569987253e+01 -6.4517844625244809e+00 7.4236037471273111e+00 0 0 0
974 794 10 -8.3399999999999996e-01 -1.0664545769298323e+01 -6.1397607351455923e+00 1.1242839902384821e+01 1 0 0
66 66 8 0.0000000000000000e+00 -8.2492727020548795e+00 -2.3979740999755528e-01 7.3947878874552213e+00 0 0 0
210 210 8 0.0000000000000000e+00 -4.0261400352461507e+00 -3.2546168080411952e-01 7.4264125382927251e+00 0 0 0
214 214 8 0.0000000000000000e+00 -4.1046790250994452e+00 -2.1360691366973050e-01 1.1369040635527524e+01 0 0 0
1137 848 9 4.1699999999999998e-01 -1.0435621491017042e+01 -1.1637375769517533e+01 1.0264250739578868e+01 1 1 0
18 18 8 0.0000000000000000e+00 -8.2971699070992351e+00 -8.4241361768393439e+00 7.5350493846025426e+00 0 0 0
186 186 8 0.0000000000000000e+00 -4.0970116465991602e+00 -4.3056329019050574e+00 7.4455055364677794e+00 0 0 0
67 67 8 0.0000000000000000e+00 -6.1695361198253940e+00 -2.2758704457386649e+00 7.4848801702533816e+00 0 0 0
352 586 10 -8.3399999999999996e-01 -1.0947599856572676e+01 -1.0463204209381896e+01 7.3498803982356531e+00 0 0 0
925 777 9 4.1699999999999998e-01 -5.1253348046939706e-02 -3.6013200213634260e+00 8.0861324210465373e+00 0 -3 -2
1033 813 9 4.1699999999999998e-01 -1.1606166265235414e+01 -1.5372156078016506e+00 1.1629522515743576e+01 1 0 0
1083 830 9 4.1699999999999998e-01 -7.5801258978227537e-02 -7.1406948905271213e+00 1.0164126388985474e+01 0 -1 1
73 73 8 0.0000000000000000e+00 -8.1026803400226761e+00 1.6447474441468461e+00 -1.0914005970736337e+01 0 0 0
74 74 8 0.0000000000000000e+00 -8.2927615108765558e+00 3.7882068612231627e+00 -8.8256488825341748e+00 0 0 0
97 97 8 0.0000000000000000e+00 -8.1445845607881147e+00 5.8277899135613769e+00 -1.0860830552992509e+01 0 0 0