LAMMPS data file via write_data, version 16 Mar 2018, timestep = 5000

1144 atoms
12 atom types
583 bonds
8 bond types
350 angles
13 angle types
132 dihedrals
18 dihedral types

-1.2167232153553035e+01 1.2167232153553035e+01 xlo xhi
-1.2167232153553035e+01 1.2167232153553035e+01 ylo yhi
-1.2167232153553035e+01 1.2167232153553035e+01 zlo zhi

Masses

1 1.008
2 1.008
3 12.011
4 12.011
5 15.9994
6 15.9994
7 32.06
8 196.966
9 1.008
10 15.9994
11 35.45
12 22.9898

Pair Coeffs # lj/charmmfsw/coul/long

1 0.028 2.38761 0.028 2.38761
2 0.024 2.38761 0.024 2.38761
3 0.056 3.58141 0.01 3.38542
4 0.078 3.63487 0.01 3.38542
5 0.1 2.93997 0.1 2.93997
6 0.12 3.02906 0.12 3.02906
7 0.47 3.74177 0.47 3.74177
8 5.29 2.62904 5.29 2.62904
9 0.046 0.400014 0.046 0.400014
10 0.1521 3.15057 0.1521 3.15057
11 0.15 4.04468 0.15 4.04468
12 0.0469 2.42993 0.0469 2.42993

Bond Coeffs # harmonic/omp

1 222.5 1.53
2 222.5 1.528
3 309 1.111
4 340 1.43
5 322 1.111
6 450 0.9572
7 540 1.448
8 250 1.575

Angle Coeffs # charmm/omp

1 58.35 113.6 11.16 2.561
2 58 115 8 2.561
3 26.5 110.1 22.53 2.179
4 75.7 110.1 0 0
5 34.6 110.1 22.53 2.179
6 15 109 27 1.9
7 34.6 110.1 22.53 2.179
8 35.5 109 5.4 1.802
9 60 109.5 0 0
10 35.5 108.4 5.4 1.802
11 55 104.52 0 0
12 130 109.47 35 2.45
13 85 98 0 0

Dihedral Coeffs # charmmfsw

1 0.101 2 0 1
2 0.142 3 180 0
3 0.074 4 0 0
4 0.097 5 0 0
5 0.162 2 0 1
6 0.047 3 180 0
7 0.105 4 0 0
8 0.177 5 0 0
9 0.19 3 0 1
10 0 3 0 1
11 0.16 3 0 1
12 0 3 0 1
13 0 3 0 1
14 0.19 3 0 1
15 0.19 3 0 1
16 0.19 3 0 1
17 0.16 3 0 1
18 0 3 0 1

Atoms # full

1 1 8 0.0000000000000000e+00 -8.2236193309327206e+00 -1.0415759535197630e+01 -1.1012290637170318e+01 0 0 0
2 2 8 0.0000000000000000e+00 -8.2829516456385903e+00 -8.3828548089382746e+00 -8.9629005891238140e+00 0 0 0
25 25 8 0.0000000000000000e+00 -8.2182537335150023e+00 -6.3190821124500260e+00 -1.0989804646305140e+01 0 0 0
26 26 8 0.0000000000000000e+00 -8.3780506569418378e+00 -4.1469389294577468e+00 -9.0784783413509835e+00 0 0 0
49 49 8 0.0000000000000000e+00 -8.4058864427233306e+00 -2.1143878343350178e+00 -1.1127434978689122e+01 0 0 0
936 781 9 4.1699999999999998e-01 -1.1191281207062765e+01 -3.3000466151692844e+00 -7.6693957064111675e+00 1 0 0
331 579 10 -8.3399999999999996e-01 -1.1154261728659595e+01 -1.0537411563691577e+01 -9.2186715435241791e+00 0 0 0
332 579 9 4.1699999999999998e-01 -1.1259441627881074e+01 -9.9715924741763100e+00 -8.4539334907818819e+00 0 0 0
926 778 10 -8.3399999999999996e-01 -1.0834908153148442e+01 -6.0400248899559008e+00 -8.9468647699147379e+00 1 0 0
50 50 8 0.0000000000000000e+00 -8.3842939645133239e+00 -2.0208801820761479e-01 -9.0907018274828939e+00 0 0 0
335 580 9 4.1699999999999998e-01 -1.0120628709264910e+01 -8.0817827752077989e+00 -1.1817242489365663e+01 0 0 0
928 778 9 4.1699999999999998e-01 -1.0289134891530535e+01 -5.9247968724639914e+00 -9.7246134544733103e+00 1 0 0
393 599 9 4.1699999999999998e-01 -1.0696063708934954e+01 -1.4717796760649922e+00 -8.4955046063563113e+00 0 0 0
391 599 10 -8.3399999999999996e-01 -1.1069919388164324e+01 -1.9389726158007612e+00 -9.2424992670696735e+00 0 0 0
455 620 9 4.1699999999999998e-01 -1.1028616573464918e+01 -1.1407325905830053e+01 -1.1757729310941254e+01 0 1 0
365 590 9 4.1699999999999998e-01 -1.0668131598715350e+01 -3.7604825813121128e+00 -1.1900416752551015e+01 0 0 0
392 599 9 4.1699999999999998e-01 -1.0921457609295091e+01 -1.3573920024525847e+00 -9.9879944737163306e+00 0 0 0
333 579 9 4.1699999999999998e-01 -1.0750405514728204e+01 -9.9750723338997833e+00 -9.8795146267483140e+00 0 0 0
927 778 9 4.1699999999999998e-01 -1.0672092783320780e+01 -5.2568908017385176e+00 -8.4212875855620233e+00 1 0 0
366 590 9 4.1699999999999998e-01 -1.0679419802194799e+01 -3.6332448989968178e+00 -1.0392075239126871e+01 0 0 0
334 580 10 -8.3399999999999996e-01 -1.0656511803278780e+01 -8.3695765723077375e+00 -1.1078295659751566e+01 0 0 0
364 590 10 -8.3399999999999996e-01 -1.0724436199985540e+01 -4.2784556700795662e+00 -1.1097564420328553e+01 0 0 0
877 761 9 4.1699999999999998e-01 -1.0612251756092016e+01 -8.0221503251737971e+00 -8.0819308506879430e+00 1 0 0
196 196 8 0.0000000000000000e+00 -2.0607929963642846e+00 -2.3153072045280609e-01 -1.1027203488868809e+01 0 0 0
3 3 8 0.0000000000000000e+00 -6.2112677076682283e+00 -1.0421336087890207e+01 -9.0127423736346941e+00 0 0 0
4 4 8 0.0000000000000000e+00 -6.1993477490656979e+00 -8.3196542552701445e+00 -1.1057641900220601e+01 0 0 0
27 27 8 0.0000000000000000e+00 -6.3220460582262676e+00 -6.3070820616956409e+00 -9.0726709378493293e+00 0 0 0
28 28 8 0.0000000000000000e+00 -6.2178917931551103e+00 -4.2526974405764264e+00 -1.1016287501865454e+01 0 0 0
51 51 8 0.0000000000000000e+00 -6.2038992705767724e+00 -2.2412260654634455e+00 -9.0026704648257905e+00 0 0 0
52 52 8 0.0000000000000000e+00 -6.2715642144939006e+00 -2.2633185568256131e-01 -1.1138370029158306e+01 0 0 0
145 145 8 0.0000000000000000e+00 -4.0428789173615591e+00 -1.0260821980865446e+01 -1.1201814698585686e+01 0 0 0
146 146 8 0.0000000000000000e+00 -4.2226448188349526e+00 -8.3335153135311462e+00 -9.0452808899457366e+00 0 0 0
169 169 8 0.0000000000000000e+00 -4.1801165985576683e+00 -6.3423511957236594e+00 -1.1071553559593918e+01 0 0 0
170 170 8 0.0000000000000000e+00 -4.2054758674937718e+00 -4.2770427738914263e+00 -9.0269097988124596e+00 0 0 0
193 193 8 0.0000000000000000e+00 -3.9538683204817993e+00 -2.2783325037336013e+00 -1.1092288688207665e+01 0 0 0
194 194 8 0.0000000000000000e+00 -4.1466484214401866e+00 -2.9970515131978992e-01 -9.0270760407590416e+00 0 0 0
147 147 8 0.0000000000000000e+00 -2.0791877608305445e+00 -1.0328127513875776e+01 -9.0204381729319145e+00 0 0 0
148 148 8 0.0000000000000000e+00 -2.0210137508192609e+00 -8.1632854622064706e+00 -1.0959473628196550e+01 0 0 0
171 171 8 0.0000000000000000e+00 -2.0871238188867149e+00 -6.2019928113080116e+00 -8.9437008791474994e+00 0 0 0
172 172 8 0.0000000000000000e+00 -2.0171315183965035e+00 -4.4651667717578638e+00 -1.1197592834802554e+01 0 0 0
195 195 8 0.0000000000000000e+00 -1.9331814266523075e+00 -2.4235311079028801e+00 -9.0728488750026148e+00 0 0 0
336 580 9 4.1699999999999998e-01 -1.1531680907796948e+01 -8.0336352300466540e+00 -1.1271326026043958e+01 0 0 0
1105 837 9 4.1699999999999998e-01 -1.1046121517519865e+01 -1.1769787172782134e+01 -7.7142912177618346e+00 1 1 0
456 620 9 4.1699999999999998e-01 -1.1448316878136865e+01 -1.1925508425117789e+01 -1.0398776988968287e+01 0 1 0
875 761 10 -8.3399999999999996e-01 -1.1144784697992856e+01 -8.5780416682227596e+00 -7.5132201559069118e+00 1 0 0
537 647 9 4.1699999999999998e-01 -5.5264046316301219e-02 -1.6312842037880735e+00 -1.0459073232296833e+01 0 0 0
486 630 9 4.1699999999999998e-01 -2.7365277609698424e-02 -9.6970421729469631e+00 -7.6007013398558518e+00 0 0 0
506 637 9 4.1699999999999998e-01 -1.3682631472467044e-01 -1.0014903036509541e+01 -1.1924794396370418e+01 0 0 1
5 5 8 0.0000000000000000e+00 -8.2313229462787518e+00 -1.0458773907406114e+01 -6.9457708103856577e+00 0 0 0
6 6 8 0.0000000000000000e+00 -8.3563369725879912e+00 -8.3399224670635217e+00 -5.1088131369371057e+00 0 0 0
9 9 8 0.0000000000000000e+00 -8.3907908391346719e+00 -1.0204883496218901e+01 -2.9037808315215710e+00 0 0 0
29 29 8 0.0000000000000000e+00 -8.2697144907849420e+00 -6.2601407610883983e+00 -7.0986640852413103e+00 0 0 0
30 30 8 0.0000000000000000e+00 -8.4196406201446052e+00 -4.2628489392191753e+00 -5.0392535330721202e+00 0 0 0
33 33 8 0.0000000000000000e+00 -8.3795510589987785e+00 -6.2845815575685444e+00 -2.9420492394246835e+00 0 0 0
53 53 8 0.0000000000000000e+00 -8.2701499438045012e+00 -2.1930511620329938e+00 -6.8941232966940991e+00 0 0 0
54 54 8 0.0000000000000000e+00 -8.3428008147909107e+00 -2.0768220129265025e-01 -5.0237502479535028e+00 0 0 0
57 57 8 0.0000000000000000e+00 -8.3422316213866559e+00 -2.2847166760379718e+00 -3.0109068440025535e+00 0 0 0
339 581 9 4.1699999999999998e-01 -1.0780269801134502e+01 -9.5993720055908494e+00 -4.3202925808989807e+00 0 0 0
156 156 8 0.0000000000000000e+00 -2.1065894968896774e+00 -8.2625958751097883e+00 -2.8761468907158037e+00 0 0 0
368 591 9 4.1699999999999998e-01 -1.1806071778653644e+01 -6.1972194411140951e+00 -5.6154718155413246e+00 0 0 0
337 581 10 -8.3399999999999996e-01 -1.1002190239277271e+01 -1.0231397136336518e+01 -5.0039164243289065e+00 0 0 0
338 581 9 4.1699999999999998e-01 -1.0970142373091837e+01 -9.7269408803341992e+00 -5.8166506563958693e+00 0 0 0
340 582 10 -8.3399999999999996e-01 -1.0811232164954449e+01 -8.2492065538989188e+00 -3.2186407409828881e+00 0 0 0
937 781 9 4.1699999999999998e-01 -1.0268366386101562e+01 -3.2991738864573357e+00 -6.4695462872744898e+00 1 0 0
199 199 8 0.0000000000000000e+00 -2.0178974861783630e+00 -2.2534933140974527e+00 -5.0428958792063279e+00 0 0 0
397 601 10 -8.3399999999999996e-01 -1.0798525624247356e+01 -2.0242005848909574e+00 -5.0482558703471687e+00 0 0 0
398 601 9 4.1699999999999998e-01 -1.0772845043042265e+01 -1.4994179039659272e+00 -4.2482669319099866e+00 0 0 0
403 603 10 -8.3399999999999996e-01 -1.0841025766690032e+01 -3.3147587532720557e-01 -2.8275376880333596e+00 0 0 0
367 591 10 -8.3399999999999996e-01 -1.0988735837955421e+01 -5.8046878107117426e+00 -5.3090056724051280e+00 0 0 0
995 801 10 -8.3399999999999996e-01 -1.1217782084814466e+01 -2.8127754975385244e-01 -7.0295028478233377e+00 1 0 0
1114 840 9 4.1699999999999998e-01 -1.1080409644173145e+01 -1.1730145234922567e+01 -3.5056063543148746e+00 1 1 0
370 592 10 -8.3399999999999996e-01 -1.0936651565216073e+01 -3.8952434059164993e+00 -3.2530229328978901e+00 0 0 0
369 591 9 4.1699999999999998e-01 -1.0770822366844438e+01 -5.1531030164134917e+00 -5.9753325536687072e+00 0 0 0
204 204 8 0.0000000000000000e+00 -1.9638152699996443e+00 -2.0723601319556906e-01 -3.0695147086578505e+00 0 0 0
341 582 9 4.1699999999999998e-01 -1.0928326677793974e+01 -7.6015224073340137e+00 -3.9135024669140499e+00 0 0 0
519 641 9 4.1699999999999998e-01 -8.1330804438159987e-02 -1.6200070485010389e+00 -6.3647060629659133e+00 0 0 0
372 592 9 4.1699999999999998e-01 -1.0834813700449958e+01 -3.3452310051937122e+00 -4.0296526005435673e+00 0 0 0
399 601 9 4.1699999999999998e-01 -1.1062532688549169e+01 -1.4078240178816284e+00 -5.7312051061248344e+00 0 0 0
200 200 8 0.0000000000000000e+00 -2.0516926492914038e+00 -2.8625757670943308e-01 -7.1617631766417711e+00 0 0 0
175 175 8 0.0000000000000000e+00 -2.0943646193397356e+00 -6.2400542952457805e+00 -4.9277001091092263e+00 0 0 0
180 180 8 0.0000000000000000e+00 -2.1928318517218042e+00 -4.1832380479951476e+00 -2.9331583183357957e+00 0 0 0
152 152 8 0.0000000000000000e+00 -2.0771740054402859e+00 -8.3402440791669239e+00 -7.0801433030390193e+00 0 0 0
7 7 8 0.0000000000000000e+00 -6.2186236714672845e+00 -1.0325697834050732e+01 -5.0236196244339997e+00 0 0 0
8 8 8 0.0000000000000000e+00 -6.1801403287648293e+00 -8.3516347865203553e+00 -7.0597280061428664e+00 0 0 0
12 12 8 0.0000000000000000e+00 -6.2158683143184756e+00 -8.3331069334128571e+00 -3.0059970367720812e+00 0 0 0
31 31 8 0.0000000000000000e+00 -6.3132987590428895e+00 -6.2913288868096666e+00 -5.0622743087899575e+00 0 0 0
32 32 8 0.0000000000000000e+00 -6.2608278953779202e+00 -4.2702573307051495e+00 -7.0159321131998347e+00 0 0 0
36 36 8 0.0000000000000000e+00 -6.3154227082765946e+00 -4.2822744115846243e+00 -3.0624441967887268e+00 0 0 0
55 55 8 0.0000000000000000e+00 -6.2859066257694280e+00 -2.2119423732361838e+00 -5.0146159967459862e+00 0 0 0
56 56 8 0.0000000000000000e+00 -6.1473526687709450e+00 -1.4643253726621630e-01 -6.9062556737382419e+00 0 0 0
60 60 8 0.0000000000000000e+00 -6.2739889371372799e+00 -2.0424352812584878e-01 -3.1631547128502095e+00 0 0 0
149 149 8 0.0000000000000000e+00 -4.1118200981148050e+00 -1.0276290020243446e+01 -7.0570160137454865e+00 0 0 0
150 150 8 0.0000000000000000e+00 -4.1747704880869474e+00 -8.3171971708410339e+00 -5.0213060333545219e+00 0 0 0
153 153 8 0.0000000000000000e+00 -4.0323226351588577e+00 -1.0342540553003715e+01 -2.9711666281419831e+00 0 0 0
173 173 8 0.0000000000000000e+00 -4.1876535633506524e+00 -6.3209836050173687e+00 -7.0532592187889875e+00 0 0 0
174 174 8 0.0000000000000000e+00 -4.2566537301067617e+00 -4.2995200853357778e+00 -5.0015988015807462e+00 0 0 0
177 177 8 0.0000000000000000e+00 -4.2250536006610888e+00 -6.2820778887819086e+00 -3.0768014665021592e+00 0 0 0
197 197 8 0.0000000000000000e+00 -4.1159842514296408e+00 -2.3032963445333525e+00 -7.0588717375102465e+00 0 0 0
198 198 8 0.0000000000000000e+00 -4.1062274851402805e+00 -2.6532329495753615e-01 -5.0551762855318962e+00 0 0 0
201 201 8 0.0000000000000000e+00 -4.1872251930259514e+00 -2.1938898531068034e+00 -2.9932251458895198e+00 0 0 0
151 151 8 0.0000000000000000e+00 -2.0064815668170990e+00 -1.0384031254638304e+01 -4.9649988735901784e+00 0 0 0
176 176 8 0.0000000000000000e+00 -2.0370331400550885e+00 -4.3664126166179988e+00 -6.9858170290754327e+00 0 0 0
1104 837 9 4.1699999999999998e-01 -1.0657706038274688e+01 -1.1435440921087629e+01 -6.2899466962757424e+00 1 1 0
371 592 9 4.1699999999999998e-01 -1.0923762877024874e+01 -4.7909764518501392e+00 -3.5899718501783209e+00 0 0 0
876 761 9 4.1699999999999998e-01 -1.1572088187207720e+01 -7.9674614124255925e+00 -6.9126854642845039e+00 1 0 0
935 781 10 -8.3399999999999996e-01 -1.0623080585902436e+01 -3.8698014329040760e+00 -7.1511623573155108e+00 1 0 0
10 10 8 0.0000000000000000e+00 -8.2473316099078673e+00 -8.2775721219699019e+00 -8.4502024560198130e-01 0 0 0
34 34 8 0.0000000000000000e+00 -8.2523753916348568e+00 -4.2345677190597089e+00 -8.6958084808122749e-01 0 0 0
58 58 8 0.0000000000000000e+00 -8.1930989934653269e+00 -3.0143224937141611e-01 -9.4495928991856282e-01 0 0 0
343 583 10 -8.3399999999999996e-01 -1.0742266375579918e+01 -1.0160862905881752e+01 -7.6630587228829405e-01 0 0 0
405 603 9 4.1699999999999998e-01 -1.0526084269463869e+01 -9.1475600097923504e-01 -2.1371501522768579e+00 0 0 0
373 593 10 -8.3399999999999996e-01 -1.1168961256983089e+01 -6.7188647168012769e+00 -1.0053961271692931e+00 0 0 0
374 593 9 4.1699999999999998e-01 -1.1085609239285445e+01 -7.3667473998188173e+00 -3.0586842328531461e-01 0 0 0
350 585 9 4.1699999999999998e-01 -1.1226904667380062e+01 -1.1960143689918082e+01 1.9001163171436630e+00 0 0 0
375 593 9 4.1699999999999998e-01 -1.0874493948641174e+01 -5.8988365627221686e+00 -6.0931392047976907e-01 0 0 0
344 583 9 4.1699999999999998e-01 -1.0757956927443628e+01 -9.6459814017878109e+00 4.0349212954572167e-02 0 0 0
184 184 8 0.0000000000000000e+00 -1.9405614662688144e+00 -4.1349371650973961e+00 1.0156377861245254e+00 0 0 0
345 583 9 4.1699999999999998e-01 -1.0588153440140378e+01 -9.5179646912419980e+00 -1.4583830390824168e+00 0 0 0
13 13 8 0.0000000000000000e+00 -8.2623215654821216e+00 -1.0403576652408983e+01 1.1568919005565643e+00 0 0 0
37 37 8 0.0000000000000000e+00 -8.2929978638191031e+00 -6.3142181368879982e+00 1.0912540239931037e+00 0 0 0
61 61 8 0.0000000000000000e+00 -8.1056380948990174e+00 -2.2324393250618950e+00 1.0679136495824793e+00 0 0 0
888 765 9 4.1699999999999998e-01 -1.0484166434369589e+01 -7.6448358925146191e+00 1.8561678182285082e+00 1 0 0
887 765 10 -8.3399999999999996e-01 -1.0614952625428151e+01 -8.4202017837544574e+00 1.3105105538843826e+00 1 0 0
378 594 9 4.1699999999999998e-01 -1.0801934458493188e+01 -3.5929540167432172e+00 1.8788393037771982e+00 0 0 0
376 594 10 -8.3399999999999996e-01 -1.0854457856818041e+01 -4.2052796409137638e+00 1.1451243788052263e+00 0 0 0
377 594 9 4.1699999999999998e-01 -1.0871025878123991e+01 -5.0700281626858121e+00 1.5549705819192177e+00 0 0 0
160 160 8 0.0000000000000000e+00 -1.9194443708073230e+00 -8.2907741710780378e+00 1.0170836430854049e+00 0 0 0
953 787 10 -8.3399999999999996e-01 -1.0527053246156520e+01 -2.3277964658870864e+00 -1.0036178654791641e+00 1 0 0
954 787 9 4.1699999999999998e-01 -1.0684730392113236e+01 -2.9118193491775557e+00 -1.7453008576982505e+00 1 0 0
889 765 9 4.1699999999999998e-01 -9.9912767620478977e+00 -9.0613231002318422e+00 1.6511438838988912e+00 1 0 0
351 585 9 4.1699999999999998e-01 -1.0447537557947873e+01 -1.1967310015894220e+01 6.0244673733497045e-01 0 0 0
208 208 8 0.0000000000000000e+00 -1.9614124984539387e+00 -1.5512056173958655e-01 1.0245114418337593e+00 0 0 0
1012 806 9 4.1699999999999998e-01 -1.0553837390594028e+01 -9.5796106477624043e-01 6.2626170986856522e-02 1 0 0
11 11 8 0.0000000000000000e+00 -6.2489050612054431e+00 -1.0460149743789790e+01 -9.8192817342416205e-01 0 0 0
35 35 8 0.0000000000000000e+00 -6.1661904217518169e+00 -6.2511639793203466e+00 -9.6239923982170694e-01 0 0 0
59 59 8 0.0000000000000000e+00 -6.1736443960316025e+00 -2.2375176182440359e+00 -1.1562526280353076e+00 0 0 0
154 154 8 0.0000000000000000e+00 -4.1600338311895886e+00 -8.2835309390439456e+00 -9.2817428891382470e-01 0 0 0
178 178 8 0.0000000000000000e+00 -4.2038322686178935e+00 -4.3312968330689374e+00 -1.0656400445989185e+00 0 0 0
202 202 8 0.0000000000000000e+00 -4.1168661702913276e+00 -1.7589605655370377e-01 -1.1849445520057760e+00 0 0 0
16 16 8 0.0000000000000000e+00 -6.1237783569353237e+00 -8.3444947535773633e+00 1.0818902193015365e+00 0 0 0
40 40 8 0.0000000000000000e+00 -6.1649120351414091e+00 -4.2100900185136352e+00 1.0314669378214720e+00 0 0 0
64 64 8 0.0000000000000000e+00 -6.1148616088433574e+00 -3.0619637774438502e-01 9.6307925595624511e-01 0 0 0
157 157 8 0.0000000000000000e+00 -4.1252368454529016e+00 -1.0440292620133794e+01 1.0323269507500239e+00 0 0 0
181 181 8 0.0000000000000000e+00 -4.2001898218286167e+00 -6.3176703209358838e+00 1.1543547653534318e+00 0 0 0
205 205 8 0.0000000000000000e+00 -4.1259847312802727e+00 -2.1930352888945635e+00 9.0973586271817730e-01 0 0 0
155 155 8 0.0000000000000000e+00 -1.8781675064002403e+00 -1.0322774645735905e+01 -9.8045870067926977e-01 0 0 0
179 179 8 0.0000000000000000e+00 -2.2015163540425675e+00 -6.2507029976703956e+00 -8.5615798529581433e-01 0 0 0
203 203 8 0.0000000000000000e+00 -2.1038444006966834e+00 -2.1632971955645015e+00 -9.4727437991754648e-01 0 0 0
1010 806 10 -8.3399999999999996e-01 -1.0667310307703968e+01 -2.4562545555406956e-01 6.9170537264736609e-01 1 0 0
955 787 9 4.1699999999999998e-01 -1.0649548412188757e+01 -2.8810362152557367e+00 -2.3228194093720589e-01 1 0 0
1113 840 9 4.1699999999999998e-01 -1.0590108132326458e+01 -1.1539137658276500e+01 -2.0862643562883374e+00 1 1 0
960 789 9 4.1699999999999998e-01 -1.1157976928275728e+01 -1.5675366909343200e+00 2.1452428711974996e+00 1 0 0
342 582 9 4.1699999999999998e-01 -1.0978125493307061e+01 -7.7659420609449707e+00 -2.4095419632731314e+00 0 0 0
14 14 8 0.0000000000000000e+00 -8.1456402574624320e+00 -8.4264761017890741e+00 3.0946440852711685e+00 0 0 0
17 17 8 0.0000000000000000e+00 -8.3157632199442979e+00 -1.0442475570494803e+01 5.2231078484299065e+00 0 0 0
964 790 9 4.1699999999999998e-01 -1.0987971082689835e+01 -3.9619814188888807e+00 4.3343936482829246e+00 1 0 0
38 38 8 0.0000000000000000e+00 -8.2853850034591687e+00 -4.2332492232786043e+00 3.0931828142307563e+00 0 0 0
41 41 8 0.0000000000000000e+00 -8.2229592958820064e+00 -6.4403968965286520e+00 5.0566966165288338e+00 0 0 0
380 595 9 4.1699999999999998e-01 -1.0642009712744969e+01 -7.8997651394644528e+00 5.8553571387536270e+00 0 0 0
211 211 8 0.0000000000000000e+00 -2.0351235846440510e+00 -2.1856847704471924e+00 7.1863058643796638e+00 0 0 0
65 65 8 0.0000000000000000e+00 -8.1759069657606673e+00 -2.0037183885758356e+00 5.0581648328582869e+00 0 0 0
162 162 8 0.0000000000000000e+00 -4.1477519961009044e+00 -8.3439822310763638e+00 7.1207843135951041e+00 0 0 0
346 584 10 -8.3399999999999996e-01 -1.1445812773681899e+01 -1.0596043711100645e+01 3.1814165377128063e+00 0 0 0
347 584 9 4.1699999999999998e-01 -1.1039559879469826e+01 -9.7594503917150881e+00 3.4074917361412425e+00 0 0 0
188 188 8 0.0000000000000000e+00 -2.0615006550010797e+00 -4.2475776278085657e+00 5.0805177776619193e+00 0 0 0
183 183 8 0.0000000000000000e+00 -2.0037005074449734e+00 -6.2992076929711391e+00 3.0019188071623724e+00 0 0 0
187 187 8 0.0000000000000000e+00 -2.0902861007578490e+00 -6.2261480890451573e+00 7.1318161197279775e+00 0 0 0
210 210 8 0.0000000000000000e+00 -4.0302927021935506e+00 -1.9393982298575096e-01 7.1714224015262094e+00 0 0 0
379 595 10 -8.3399999999999996e-01 -1.0579450185190936e+01 -8.4889034346054579e+00 5.1036646500352507e+00 0 0 0
961 789 9 4.1699999999999998e-01 -1.0740947329377592e+01 -1.5598007286027116e+00 3.6003874962975200e+00 1 0 0
959 789 10 -8.3399999999999996e-01 -1.0960134213345526e+01 -2.1493599559443215e+00 2.8789890546229859e+00 1 0 0
385 597 10 -8.3399999999999996e-01 -1.0682696168431759e+01 -6.5561471372374678e+00 7.1170719789010430e+00 0 0 0
18 18 8 0.0000000000000000e+00 -8.3273706752457901e+00 -8.4673116819872831e+00 7.2568989597237543e+00 0 0 0
164 164 8 0.0000000000000000e+00 -2.0030846532677824e+00 -8.2821815630933600e+00 5.1237671937427844e+00 0 0 0
387 597 9 4.1699999999999998e-01 -1.0662664242055291e+01 -5.9173148449607140e+00 6.4046598434988322e+00 0 0 0
207 207 8 0.0000000000000000e+00 -2.1148201205467601e+00 -2.1762569765348356e+00 3.1010829540696374e+00 0 0 0
950 786 10 -8.3399999999999996e-01 -1.1073905430169956e+01 -6.4320365820592542e+00 2.9792622576887791e+00 1 0 0
963 790 9 4.1699999999999998e-01 -1.0933972132672558e+01 -3.9389088689778937e+00 5.8469952127868137e+00 1 0 0
962 790 10 -8.3399999999999996e-01 -1.1083039970144741e+01 -4.5232576717563724e+00 5.1037902194556448e+00 1 0 0
42 42 8 0.0000000000000000e+00 -8.3107370542554264e+00 -4.3120864893307163e+00 7.1077401076684037e+00 0 0 0
66 66 8 0.0000000000000000e+00 -8.1748899967593687e+00 -2.4738723460563072e-01 7.1885797451300721e+00 0 0 0
474 626 9 4.1699999999999998e-01 -1.0435278272076864e+01 -1.1693151084229752e+01 4.5278920057361578e+00 0 1 0
951 786 9 4.1699999999999998e-01 -1.0704813573604458e+01 -6.4052395319984354e+00 3.8619267785410241e+00 1 0 0
497 634 9 4.1699999999999998e-01 -5.2322022105496302e-02 -6.0046379042040261e+00 5.7387561645446663e+00 0 0 0
15 15 8 0.0000000000000000e+00 -6.1880914706806811e+00 -1.0352559642495677e+01 3.2354044459385580e+00 0 0 0
19 19 8 0.0000000000000000e+00 -6.2450002662568735e+00 -1.0412837763711027e+01 7.2068902971224329e+00 0 0 0
20 20 8 0.0000000000000000e+00 -6.2095645744788071e+00 -8.4428315135325622e+00 5.1119609741274754e+00 0 0 0
39 39 8 0.0000000000000000e+00 -6.1395045002818787e+00 -6.2845612525383689e+00 3.1309011674779796e+00 0 0 0
212 212 8 0.0000000000000000e+00 -1.9757804064397337e+00 -1.7968762930135362e-01 5.0889573985452596e+00 0 0 0
44 44 8 0.0000000000000000e+00 -6.2348242173205302e+00 -4.1919917202212460e+00 5.1324932819057647e+00 0 0 0
63 63 8 0.0000000000000000e+00 -6.0599436883619502e+00 -2.2108241983980630e+00 3.1124910251537123e+00 0 0 0
67 67 8 0.0000000000000000e+00 -6.1726283539528550e+00 -2.3202649947253438e+00 7.0682120686996637e+00 0 0 0
68 68 8 0.0000000000000000e+00 -6.0582581319241982e+00 -1.1202498332563060e-01 5.2097036717334628e+00 0 0 0
158 158 8 0.0000000000000000e+00 -4.1115335744554535e+00 -8.3501245399248880e+00 3.1455787858500592e+00 0 0 0
161 161 8 0.0000000000000000e+00 -4.0633359356235434e+00 -1.0312411793613396e+01 5.2047146327577796e+00 0 0 0
381 595 9 4.1699999999999998e-01 -1.1024100794640399e+01 -9.2876352348737683e+00 5.3871301707143733e+00 0 0 0
182 182 8 0.0000000000000000e+00 -4.0985269796520480e+00 -4.2366404839706329e+00 3.0560194461382881e+00 0 0 0
185 185 8 0.0000000000000000e+00 -4.1097248336248704e+00 -6.3744496552492667e+00 5.0651182620765045e+00 0 0 0
186 186 8 0.0000000000000000e+00 -4.1616380503853279e+00 -4.2970855953812448e+00 7.1240224201194717e+00 0 0 0
206 206 8 0.0000000000000000e+00 -4.0175117068259016e+00 -1.2335760724399414e-01 3.0740155291179878e+00 0 0 0
209 209 8 0.0000000000000000e+00 -4.0653121088453315e+00 -2.1610152554793842e+00 5.1163072870156245e+00 0 0 0
382 596 10 -8.3399999999999996e-01 -1.0733034742482662e+01 -2.8600269543190500e+00 7.2694289490698072e+00 0 0 0
159 159 8 0.0000000000000000e+00 -2.0149760850933021e+00 -1.0254870878596652e+01 3.0857232942691724e+00 0 0 0
952 786 9 4.1699999999999998e-01 -1.1806193470453817e+01 -7.0449133974087461e+00 3.0438847317774655e+00 1 0 0
473 626 9 4.1699999999999998e-01 -1.0624923580428060e+01 -1.1805728813566194e+01 6.0254813314430908e+00 0 1 0
43 43 8 0.0000000000000000e+00 -6.2886048850486169e+00 -6.3244587208403669e+00 7.0231064799547358e+00 0 0 0
62 62 8 0.0000000000000000e+00 -8.0534978105791559e+00 -1.3006489657396259e-02 3.1187643501473143e+00 0 0 0
21 21 8 0.0000000000000000e+00 -8.1228223900779462e+00 -1.0439211874076404e+01 9.1357332580267592e+00 0 0 0
22 22 8 0.0000000000000000e+00 -8.2112562820878701e+00 -8.4089591476260566e+00 1.1217864679064485e+01 0 0 0
45 45 8 0.0000000000000000e+00 -8.1394431845421913e+00 -6.3354114370664352e+00 9.0778874566626282e+00 0 0 0
46 46 8 0.0000000000000000e+00 -8.1246868165548918e+00 -4.2298141649223799e+00 1.1259494927956945e+01 0 0 0
69 69 8 0.0000000000000000e+00 -8.2070909726415202e+00 -2.1420880637709114e+00 9.1050941625291966e+00 0 0 0
70 70 8 0.0000000000000000e+00 -8.0790787251298539e+00 -1.1654132477051249e-01 1.1171548384101369e+01 0 0 0
353 586 9 4.1699999999999998e-01 -1.0757539788487501e+01 -9.8759214326924116e+00 8.1442155639590421e+00 0 0 0
968 792 10 -8.3399999999999996e-01 -1.1462701007705720e+01 -4.7662390609944127e+00 9.0575476885256929e+00 1 0 0
1033 813 9 4.1699999999999998e-01 -1.0384237010424348e+01 -1.7632880301437694e+00 1.1988584905848510e+01 1 0 0
361 589 10 -8.3399999999999996e-01 -1.0321698364971546e+01 -6.2626550214205290e+00 1.1158810750743891e+01 0 0 -1
360 588 9 4.1699999999999998e-01 -1.0305649182736307e+01 -7.7273261748545510e+00 8.5320610707944855e+00 0 0 0
386 597 9 4.1699999999999998e-01 -1.1081324510120158e+01 -6.0863732733953828e+00 7.8494969656153568e+00 0 0 0
359 588 9 4.1699999999999998e-01 -1.0376997828625294e+01 -7.7958596803142557e+00 1.0042566429541106e+01 0 0 0
356 587 9 4.1699999999999998e-01 -1.0296835657605122e+01 -9.6882243217477875e+00 1.0512508178145501e+01 0 0 0
363 589 9 4.1699999999999998e-01 -1.0684712291730097e+01 -5.8024283779018129e+00 1.1915417186568385e+01 0 0 -1
357 587 9 4.1699999999999998e-01 -1.0622139242272567e+01 -1.1161474433475087e+01 1.0635499404144577e+01 0 0 0
355 587 10 -8.3399999999999996e-01 -1.0688555098665441e+01 -1.0329960432543402e+01 1.1104768770292599e+01 0 0 0
970 792 9 4.1699999999999998e-01 -1.1075289302408903e+01 -4.2478093879174921e+00 8.3524360375000679e+00 1 0 0
362 589 9 4.1699999999999998e-01 -1.0601175001198598e+01 -5.7431155460443399e+00 1.0405146475585608e+01 0 0 -1
358 588 10 -8.3399999999999996e-01 -1.0265121886373811e+01 -8.3419924473714282e+00 9.2645802253600227e+00 0 0 0
192 192 8 0.0000000000000000e+00 -2.1140423144575209e+00 -4.3918770375198619e+00 9.2190159183887541e+00 0 0 0
191 191 8 0.0000000000000000e+00 -2.0712067594417292e+00 -6.4835904950572258e+00 1.1271819148815235e+01 0 0 0
1031 813 10 -8.3399999999999996e-01 -1.0689300539552665e+01 -2.2999370754061292e+00 1.1257157612734323e+01 1 0 0
215 215 8 0.0000000000000000e+00 -1.8837195937071662e+00 -2.3300950829459630e+00 1.1079645866311695e+01 0 0 0
384 596 9 4.1699999999999998e-01 -1.0021395324306091e+01 -2.2308097097124868e+00 7.3864491847068781e+00 0 0 0
216 216 8 0.0000000000000000e+00 -1.9550797380031995e+00 -2.2411338131029446e-01 9.1954334435946787e+00 0 0 0
23 23 8 0.0000000000000000e+00 -6.1388680572482794e+00 -1.0334645035888734e+01 1.1304839100775188e+01 0 0 0
24 24 8 0.0000000000000000e+00 -6.1347030278975136e+00 -8.3099036689496231e+00 9.1148863118923469e+00 0 0 0
47 47 8 0.0000000000000000e+00 -6.1990004595740560e+00 -6.3921799110204995e+00 1.1147401532081455e+01 0 0 0
48 48 8 0.0000000000000000e+00 -6.1697225821597783e+00 -4.3197175776503851e+00 9.1140463095861168e+00 0 0 0
71 71 8 0.0000000000000000e+00 -6.0316332276104703e+00 -2.2777006629258842e+00 1.1226018509600687e+01 0 0 0
72 72 8 0.0000000000000000e+00 -6.0128746248105580e+00 -2.7199974255726289e-01 9.2325047830331339e+00 0 0 0
165 165 8 0.0000000000000000e+00 -4.1622118233915621e+00 -1.0440529954844649e+01 9.2577060256958266e+00 0 0 0
166 166 8 0.0000000000000000e+00 -4.1132207651539883e+00 -8.3350325099530238e+00 1.1140709975980888e+01 0 0 0
189 189 8 0.0000000000000000e+00 -4.1965209582706704e+00 -6.2590658317610854e+00 9.0913589649692614e+00 0 0 0
190 190 8 0.0000000000000000e+00 -4.1460378626770105e+00 -4.3697643827032202e+00 1.1191492090237157e+01 0 0 0
213 213 8 0.0000000000000000e+00 -4.0549317109193215e+00 -2.2702065394189823e+00 9.1929731277282851e+00 0 0 0
214 214 8 0.0000000000000000e+00 -4.0646192701606623e+00 -2.2002169020105100e-01 1.1287508446721796e+01 0 0 0
167 167 8 0.0000000000000000e+00 -1.9814123196692339e+00 -1.0342152043260169e+01 1.1141154891640484e+01 0 0 0
168 168 8 0.0000000000000000e+00 -2.0668619935852028e+00 -8.2642997320691745e+00 9.1749348099847072e+00 0 0 0
354 586 9 4.1699999999999998e-01 -1.0310612814367781e+01 -1.1320610574034374e+01 8.2116161097386549e+00 0 0 0
415 607 10 -8.3399999999999996e-01 -1.0699443736625275e+01 -3.9480840850061405e-01 9.4016505972648883e+00 0 0 0
1032 813 9 4.1699999999999998e-01 -1.0610471983233730e+01 -1.7301270885530275e+00 1.0492207572584251e+01 1 0 0
352 586 10 -8.3399999999999996e-01 -1.0734712282796034e+01 -1.0685686778914844e+01 7.6345113699819311e+00 0 0 0
383 596 9 4.1699999999999998e-01 -1.1527604827400522e+01 -2.3619826869070444e+00 7.4608668948667489e+00 0 0 0
163 163 8 0.0000000000000000e+00 -1.9685142087871945e+00 -1.0444994427744032e+01 7.3172659694576065e+00 0 0 0
73 73 8 0.0000000000000000e+00 -8.3313516155477103e+00 1.8886659282768807e+00 -1.1040250688739984e+01 0 0 0
74 74 8 0.0000000000000000e+00 -8.2292624191067265e+00 3.9593346110417844e+00 -9.1893019892873600e+00 0 0 0
97 97 8 0.0000000000000000e+00 -8.2394454853794059e+00 6.0134158941381077e+00 -1.1013760760586109e+01 0 0 0
98 98 8 0.0000000000000000e+00 -8.2559938778280486e+00 7.9481676365130358e+00 -8.9778721970998259e+00 0 0 0
121 121 8 0.0000000000000000e+00 -8.2495802207334528e+00 9.8164475096120984e+00 -1.1112237019461354e+01 0 0 0