LAMMPS data file via write_data, version 16 Mar 2018, timestep = 500000

714 atoms
12 atom types
403 bonds
8 bond types
260 angles
13 angle types
132 dihedrals
18 dihedral types

-1.9725386000000000e+01 1.9725386000000000e+01 xlo xhi
-7.3970199000000001e+00 7.3970199000000001e+00 ylo yhi
-7.3970199000000001e+00 7.3970199000000001e+00 zlo zhi

Masses

1 1.008
2 1.008
3 12.011
4 12.011
5 15.9994
6 15.9994
7 32.06
8 196.966
9 1.008
10 15.9994
11 35.45
12 22.9898

Pair Coeffs # lj/charmmfsw/coul/long

1 0.028 2.38761 0.028 2.38761
2 0.024 2.38761 0.024 2.38761
3 0.056 3.58141 0.01 3.38542
4 0.078 3.63487 0.01 3.38542
5 0.1 2.93997 0.1 2.93997
6 0.12 3.02906 0.12 3.02906
7 0.47 3.74177 0.47 3.74177
8 5.29 2.62904 5.29 2.62904
9 0.046 0.400014 0.046 0.400014
10 0.1521 3.15057 0.1521 3.15057
11 0.15 4.04468 0.15 4.04468
12 0.0469 2.42993 0.0469 2.42993

Bond Coeffs # harmonic

1 222.5 1.53
2 222.5 1.528
3 309 1.111
4 340 1.43
5 322 1.111
6 450 0.9572
7 540 1.448
8 250 1.575

Angle Coeffs # charmm

1 58.35 113.6 11.16 2.561
2 58 115 8 2.561
3 26.5 110.1 22.53 2.179
4 75.7 110.1 0 0
5 34.6 110.1 22.53 2.179
6 15 109 27 1.9
7 34.6 110.1 22.53 2.179
8 35.5 109 5.4 1.802
9 60 109.5 0 0
10 35.5 108.4 5.4 1.802
11 55 104.52 0 0
12 130 109.47 35 2.45
13 85 98 0 0

Dihedral Coeffs # charmmfsw

1 0.101 2 0 1
2 0.142 3 180 0
3 0.074 4 0 0
4 0.097 5 0 0
5 0.162 2 0 1
6 0.047 3 180 0
7 0.105 4 0 0
8 0.177 5 0 0
9 0.19 3 0 1
10 0 3 0 1
11 0.16 3 0 1
12 0 3 0 1
13 0 3 0 1
14 0.19 3 0 1
15 0.19 3 0 1
16 0.19 3 0 1
17 0.16 3 0 1
18 0 3 0 1

Atoms # full

1 1 8 0.0000000000000000e+00 -1.3527627005570462e+01 -4.8354118876924588e+00 -4.8534770221647845e+00 0 0 0
2 2 8 0.0000000000000000e+00 -1.1568368781039130e+01 -5.0204338552942085e+00 -2.8496914008979317e+00 0 0 0
24 24 8 0.0000000000000000e+00 -1.0105670088540917e+01 -3.3923031021352384e-01 -2.4495927163263365e+00 0 0 0
4 4 8 0.0000000000000000e+00 -1.0825424760137786e+01 -5.7601854017198217e+00 -5.5129745968287986e+00 0 0 0
30 30 8 0.0000000000000000e+00 -1.2171326279930039e+01 -2.8936151642301966e-01 -4.6687106168500563e+00 0 0 1
630 412 9 4.1699999999999998e-01 -1.6483611810399768e+01 -7.0570337199455366e+00 -3.8681206231715315e+00 1 2 -2
332 312 9 4.1699999999999998e-01 -1.9571797135321006e+01 -5.3215464071680989e+00 -5.1507037143289534e+00 1 3 2
594 400 9 4.1699999999999998e-01 -1.7865924358147939e+01 -3.8985588469836578e+00 -4.1891075543631366e+00 1 0 -1
18 18 8 0.0000000000000000e+00 -1.2106690380013490e+01 -2.3408730677570628e+00 -2.4477457235911815e+00 0 0 0
21 21 8 0.0000000000000000e+00 -1.4362019332297370e+01 -4.2475281179775362e+00 -2.1042932324873385e+00 0 0 0
305 303 9 4.1699999999999998e-01 -1.6547769471563655e+01 -5.0462527666242929e-01 -6.7829698927024547e+00 1 -3 0
330 312 10 -8.3399999999999996e-01 -1.9299403874787508e+01 -4.7977859874034907e+00 -4.3944739244362365e+00 1 3 2
29 29 8 0.0000000000000000e+00 -1.3424363571020880e+01 -2.9592879840529540e+00 -7.2061741663647281e+00 0 0 1
628 412 10 -8.3399999999999996e-01 -1.5932308093281316e+01 -6.8610365186775795e+00 -4.6654475197370644e+00 1 2 -2
515 373 9 4.1699999999999998e-01 -1.4783018850751608e+01 -1.3585950976243061e-01 -3.8734139328584432e+00 1 2 -1
489 365 10 -8.3399999999999996e-01 -1.4681426827760024e+01 -1.7682475065650516e+00 -4.3022510832086551e+00 1 2 -3
490 365 9 4.1699999999999998e-01 -1.5398754376294180e+01 -2.4725518446180179e+00 -4.2229284142352981e+00 1 2 -3
209 271 9 4.1699999999999998e-01 -1.8297590773558436e+01 -3.9122340976928536e+00 -1.5900592170275789e+00 0 -1 0
5 5 8 0.0000000000000000e+00 -1.3645666331122534e+01 -6.8483158617661397e+00 -2.7294603929377561e+00 0 0 0
621 409 9 4.1699999999999998e-01 -1.5393660292987450e+01 -1.4792484762141751e+00 -2.7262480276615793e+00 1 -2 1
629 412 9 4.1699999999999998e-01 -1.5658317208357969e+01 -5.9945217359723708e+00 -4.4862021042737181e+00 1 2 -2
491 365 9 4.1699999999999998e-01 -1.4002661426106828e+01 -2.2737954679775667e+00 -4.8101041164811740e+00 1 2 -3
45 45 8 0.0000000000000000e+00 -1.3947498915547637e+01 -3.2721951335648009e-01 -6.8149570050078552e+00 0 0 1
12 12 8 0.0000000000000000e+00 -1.2263848155243208e+01 -3.9567957520925945e+00 -1.4091150873121822e-01 0 0 0
207 271 10 -8.3399999999999996e-01 -1.7486416609967545e+01 -4.4083727321063524e+00 -1.5784620470781250e+00 0 -1 0
619 409 10 -8.3399999999999996e-01 -1.5888364418661087e+01 -1.3463702486640141e+00 -1.8722655499902767e+00 1 -2 1
609 405 9 4.1699999999999998e-01 -1.5898389141210943e+01 -5.6428623547058807e+00 -6.6454935244177014e+00 1 3 0
592 400 10 -8.3399999999999996e-01 -1.6911197314375755e+01 -3.5957313971593035e+00 -4.2902846569186259e+00 1 0 -1
575 394 9 4.1699999999999998e-01 -1.7397891201188539e+01 -5.7074088961933169e+00 -2.7903880506566769e-01 1 -3 1
17 17 8 0.0000000000000000e+00 -1.1429047574077094e+01 -2.9869278175700460e+00 -5.0696600555886704e+00 0 0 0
7 7 8 0.0000000000000000e+00 -1.1661331498153064e+01 -6.8470761307107066e+00 -6.1887933471967349e-01 0 0 0
32 32 8 0.0000000000000000e+00 -1.1318698197994568e+01 -1.0789133269778526e+00 -7.3025922688090485e+00 0 0 1
208 271 9 4.1699999999999998e-01 -1.7546763396128330e+01 -4.7524970700929297e+00 -2.4498822409811734e+00 0 -1 0
620 409 9 4.1699999999999998e-01 -1.6611126548046602e+01 -1.9949147572186763e+00 -1.7648011650897892e+00 1 -2 1
593 400 9 4.1699999999999998e-01 -1.6700770865527922e+01 -3.6778259199845311e+00 -5.2288655752329243e+00 1 0 -1
607 405 10 -8.3399999999999996e-01 -1.6057220219199856e+01 -4.6751039582000526e+00 -6.6531330815872618e+00 1 3 0
506 370 9 4.1699999999999998e-01 -1.5621806108630317e+01 -3.8982171187696699e+00 -2.3948774372271253e-01 1 0 -4
295 300 9 4.1699999999999998e-01 -1.6691251677532808e+01 -7.2287350651295199e+00 -1.5249254535273487e+00 1 1 0
304 303 9 4.1699999999999998e-01 -1.6692971521565980e+01 -1.2039543553385826e-01 -5.2659234483856467e+00 1 -3 0
237 281 10 -8.3399999999999996e-01 -1.6468224024717742e+01 -4.5745249927148572e+00 3.0731675952981146e+00 0 1 0
635 414 9 4.1699999999999998e-01 -1.6451451384136583e+01 -7.1505555473528410e+00 1.7010726944629140e+00 1 2 -1
504 370 10 -8.3399999999999996e-01 -1.6122369988291464e+01 -3.5751037404405195e+00 5.3566996689286084e-01 1 0 -4
23 23 8 0.0000000000000000e+00 -1.3857502289017784e+01 -4.2965247312811106e-01 5.3222674857307206e-01 0 0 0
611 406 9 4.1699999999999998e-01 -1.7068779157789088e+01 -1.9138680236582521e+00 4.9615842573813866e+00 1 -3 -1
25 25 8 0.0000000000000000e+00 -1.4273423081745115e+01 -2.2789732033206702e+00 2.6710575871089888e+00 0 0 0
368 324 9 4.1699999999999998e-01 -1.5312660400956785e+01 -4.8515152185204000e+00 4.8627488267966905e+00 1 4 -3
610 406 10 -8.3399999999999996e-01 -1.7000499772060248e+01 -2.0041997802143752e+00 3.9059287266635923e+00 1 -3 -1
711 439 9 4.1699999999999998e-01 -1.6342811276423777e+01 -1.6748419605630229e+00 8.8731623205423971e-01 1 -1 2
576 394 9 4.1699999999999998e-01 -1.8260719595117688e+01 -6.5010894761411402e+00 5.8215997535768527e-01 1 -3 1
608 405 9 4.1699999999999998e-01 -1.6423811987771987e+01 -4.4989720555690269e+00 7.2851064263535354e+00 1 3 -1
13 13 8 0.0000000000000000e+00 -1.3710281210677053e+01 -6.9117596136300499e+00 4.7672504192918277e+00 0 0 0
10 10 8 0.0000000000000000e+00 -1.3569910155145887e+01 -5.0388766643130438e+00 2.5070223025661158e+00 0 0 0
11 11 8 0.0000000000000000e+00 -1.0851672084864370e+01 -5.8431801124170457e+00 1.9621585848219132e+00 0 0 0
634 414 10 -8.3399999999999996e-01 -1.5945879753383910e+01 -7.2522781457392371e+00 2.5140494919032497e+00 1 2 -1
574 394 10 -8.3399999999999996e-01 -1.7351198780661942e+01 -6.5149596977684299e+00 2.3408659393240522e-01 1 -3 1
16 16 8 0.0000000000000000e+00 -1.1673208945860338e+01 -4.8161603840012344e+00 4.5354906172163583e+00 0 0 0
26 26 8 0.0000000000000000e+00 -1.0420003441281866e+01 -2.0114214842108358e+00 4.7750658619594599e+00 0 0 0
27 27 8 0.0000000000000000e+00 -1.1400907468105594e+01 -3.0505655347129821e+00 2.3129174981943423e+00 0 0 0
28 28 8 0.0000000000000000e+00 -1.2011449519442797e+01 -2.2031552289078504e-01 2.6731749784231567e+00 0 0 0
14 14 8 0.0000000000000000e+00 -1.2958085942507271e+01 -5.7653332932263996e+00 7.1236522073313395e+00 0 0 0
637 415 10 -8.3399999999999996e-01 -1.6196923741167581e+01 -2.0516924437461399e+00 6.7781723984826145e+00 1 -2 -5
41 41 8 0.0000000000000000e+00 -1.3099784523632929e+01 -1.2000270769605210e+00 5.2254288660280226e+00 0 0 0
709 439 10 -8.3399999999999996e-01 -1.6561459677409388e+01 -8.5992516145485109e-01 1.4060490224885174e+00 1 -1 2
682 430 10 -8.3399999999999996e-01 -1.8401692135144565e+01 -3.7492172874842082e+00 6.2086812153555213e+00 1 1 1
238 281 9 4.1699999999999998e-01 -1.6823162703480154e+01 -3.8015209408969595e+00 3.4793407354455970e+00 0 1 0
31 31 8 0.0000000000000000e+00 -1.0629567727690501e+01 -3.8476447167849397e+00 6.9806706470606965e+00 0 0 0
367 324 9 4.1699999999999998e-01 -1.3916413700192043e+01 -4.3111735654372128e+00 5.3171708175780577e+00 1 4 -3
612 406 9 4.1699999999999998e-01 -1.8003692631329855e+01 -2.0561363127543637e+00 3.6262097840629144e+00 1 -3 -1
15 15 8 0.0000000000000000e+00 -1.0167677653278973e+01 -6.5566743426861605e+00 6.5849648000008747e+00 0 0 0
366 324 10 -8.3399999999999996e-01 -1.4873009975356366e+01 -4.2101366016341126e+00 5.4042500610238644e+00 1 4 -3
239 281 9 4.1699999999999998e-01 -1.6311450235216583e+01 -4.2755285495652444e+00 2.1559807627986913e+00 0 1 0
639 415 9 4.1699999999999998e-01 -1.5644944215590819e+01 -2.7927241511827159e+00 6.6732234707599556e+00 1 -2 -5
293 299 9 4.1699999999999998e-01 -1.7104354559327401e+01 -6.3791266772090660e+00 4.8375980349647145e+00 1 0 0
710 439 9 4.1699999999999998e-01 -1.6211808974750205e+01 -1.0897503318166821e+00 2.2875373535179575e+00 1 -1 2
636 414 9 4.1699999999999998e-01 -1.6161166421537537e+01 -6.3952501560379948e+00 2.9490007997214156e+00 1 2 -1
684 430 9 4.1699999999999998e-01 -1.8290086727493861e+01 -4.3737423442068266e+00 5.4884281131171484e+00 1 1 1
683 430 9 4.1699999999999998e-01 -1.9351636917268856e+01 -3.9200758351367444e+00 6.5075600547392964e+00 1 1 1
638 415 9 4.1699999999999998e-01 -1.7047591017955593e+01 -2.4867500996758585e+00 7.0513258223398374e+00 1 -2 -5
278 294 9 4.1699999999999998e-01 -1.9417424018827724e+01 -3.9059104279471404e+00 2.3763647512373494e+00 0 1 0
276 294 10 -8.3399999999999996e-01 -1.9195193859068052e+01 -2.9639932448691266e+00 2.5753619483627572e+00 0 1 0
291 299 10 -8.3399999999999996e-01 -1.8040566235331916e+01 -6.0133980123348252e+00 4.8898021691422988e+00 1 0 0
292 299 9 4.1699999999999998e-01 -1.8585845718861123e+01 -6.5557738866627968e+00 5.4803904284399216e+00 1 0 0
426 344 10 -8.3399999999999996e-01 -1.9632517655609767e+01 -5.3623545068450296e-01 6.2604300378461328e+00 1 -1 1
646 418 10 -8.3399999999999996e-01 -1.6107939597107144e+01 -7.3333485207461875e+00 7.1353644825213758e+00 1 2 -4
447 351 10 -8.3399999999999996e-01 -1.9229439853707166e+01 -5.8380959857867660e+00 2.1854106367649044e+00 1 1 -3
449 351 9 4.1699999999999998e-01 -1.8635906492504532e+01 -5.6033162369067924e+00 2.8828541193626376e+00 1 1 -3
86 86 8 0.0000000000000000e+00 -1.1191271762964762e+01 -1.2563085264161469e+00 1.2175469570213877e-01 0 0 0
6 6 8 0.0000000000000000e+00 -1.4410987391033945e+01 -6.0784810193848546e+00 7.4408065673955359e-02 0 0 0
505 370 9 4.1699999999999998e-01 -1.7002082862464167e+01 -3.5745137466818613e+00 2.1379673438147617e-02 1 0 -4
647 418 9 4.1699999999999998e-01 -1.6074156064737839e+01 6.9535324454521765e+00 -6.7725272744079241e+00 1 1 -3
294 300 10 -8.3399999999999996e-01 -1.6777259518407348e+01 7.0083282792407839e+00 -2.2437327075403135e+00 1 0 0
62 62 8 0.0000000000000000e+00 -1.2960955744264103e+01 7.1022957718269311e+00 -5.3648480061397166e+00 0 0 1
296 300 9 4.1699999999999998e-01 -1.6544053711156369e+01 6.1613299464169007e+00 -1.8688330134216364e+00 1 0 0
37 37 8 0.0000000000000000e+00 -1.2705779230000159e+01 5.1087137104165115e-01 -1.9433546767188763e+00 0 0 0
262 289 9 4.1699999999999998e-01 -1.5099937812050218e+01 6.3635215072593176e+00 -5.4435902632266409e+00 0 -2 -1
3 3 8 0.0000000000000000e+00 -1.0946309094934390e+01 7.0967284676043425e+00 -3.3358024235918586e+00 0 -1 0
254 286 9 4.1699999999999998e-01 -1.6598792370630967e+01 3.2152112530144330e+00 -9.0568563592860030e-01 0 0 -1
310 305 9 4.1699999999999998e-01 -1.7490935512842832e+01 4.0283960862706101e+00 -3.8124176587616674e+00 1 -2 3
370 325 9 4.1699999999999998e-01 -1.5622377189467532e+01 1.5094743209921853e+00 -1.0521698086541527e-01 1 -1 0
258 288 10 -8.3399999999999996e-01 -1.8663083581560524e+01 1.1580915424135980e+00 -1.8497268096880168e+00 0 1 -2
371 325 9 4.1699999999999998e-01 -1.5708355792330005e+01 2.5619347505771639e-01 -1.0191711638425756e+00 1 -1 0
49 49 8 0.0000000000000000e+00 -1.2242534464741412e+01 4.3302622572593092e+00 -6.1852952954645088e+00 0 0 0
309 305 10 -8.3399999999999996e-01 -1.8269142474342566e+01 4.1638503440096608e+00 -4.3732215345729211e+00 1 -2 3
52 52 8 0.0000000000000000e+00 -1.0146194238813745e+01 6.3363611029981435e+00 -6.0856826815766176e+00 0 0 0
33 33 8 0.0000000000000000e+00 -1.2609372353173082e+01 2.5021510181869018e+00 -4.1599831179931730e+00 0 0 0
34 34 8 0.0000000000000000e+00 -1.3389543913431295e+01 3.2455945572057456e+00 -1.2541325011108946e+00 0 0 0
625 411 10 -8.3399999999999996e-01 -1.5805607571317044e+01 3.7737674079219357e+00 -3.5775736687666098e+00 1 -4 -2
514 373 9 4.1699999999999998e-01 -1.5297393969136124e+01 8.6954433702960587e-01 -2.9143922830366509e+00 1 2 -1
263 289 9 4.1699999999999998e-01 -1.5182846924458120e+01 4.9513909572647608e+00 -5.1045168585457317e+00 0 -2 -1
627 411 9 4.1699999999999998e-01 -1.5917237084193983e+01 3.7943880682540421e+00 -2.6464231790182220e+00 1 -4 -2
40 40 8 0.0000000000000000e+00 -1.0722067234972723e+01 2.3240958930826014e+00 -1.8972336194610755e+00 0 0 0
50 50 8 0.0000000000000000e+00 -1.3317041741104950e+01 5.1141359966646602e+00 -3.3226795621829739e+00 0 0 0
51 51 8 0.0000000000000000e+00 -1.0442916307207016e+01 4.3662880644628776e+00 -4.0392961546801400e+00 0 0 0
513 373 10 -8.3399999999999996e-01 -1.5026944941819846e+01 7.9071143214877815e-01 -3.8471565443250073e+00 1 2 -1
569 391 9 4.1699999999999998e-01 -1.8540214820551146e+01 1.0356853750812669e+00 -6.1291978916516516e+00 1 -1 0
252 286 10 -8.3399999999999996e-01 -1.6270861714776466e+01 4.1649725337143417e+00 -9.4239600999061612e-01 0 0 -1
56 56 8 0.0000000000000000e+00 -1.1152704062846492e+01 5.1442556026245381e+00 -1.1586724525538812e+00 0 0 0
347 317 9 4.1699999999999998e-01 -1.6669938841754711e+01 4.8816920182343528e+00 -6.9519774409423380e+00 1 1 -5
261 289 10 -8.3399999999999996e-01 -1.5476011758037693e+01 5.5390795587582415e+00 -5.8577097695308407e+00 0 -2 -1
48 48 8 0.0000000000000000e+00 -1.1659031162482512e+01 1.6051113454857298e+00 -6.7643554827407337e+00 0 0 1
46 46 8 0.0000000000000000e+00 -1.4661570829097379e+01 2.3280527526873946e+00 -6.2382382928722659e+00 0 0 1
626 411 9 4.1699999999999998e-01 -1.5610929668597571e+01 2.8354321407836718e+00 -3.7583135268839509e+00 1 -4 -2
311 305 9 4.1699999999999998e-01 -1.7888448378921819e+01 4.1658327525064855e+00 -5.2731077755910780e+00 1 -2 3
53 53 8 0.0000000000000000e+00 -1.3834756011811377e+01 5.9367050392267187e+00 -5.9954047695025381e-01 0 0 0
369 325 10 -8.3399999999999996e-01 -1.5834274002817557e+01 1.2229083313637783e+00 -1.0449838443229031e+00 1 -1 0
260 288 9 4.1699999999999998e-01 -1.7725523310286849e+01 9.4384877668434164e-01 -1.9310773785944273e+00 0 1 -2
588 398 9 4.1699999999999998e-01 -1.8918604670120533e+01 6.6190310132040944e+00 -3.1500954138198636e+00 1 -1 -2
567 391 10 -8.3399999999999996e-01 -1.9533904266100649e+01 1.1714313102729204e+00 -6.2549991514713419e+00 1 -1 0
303 303 10 -8.3399999999999996e-01 -1.7029587375346527e+01 1.6519672040298036e-01 -6.1256921214919986e+00 1 -3 0
259 288 9 4.1699999999999998e-01 -1.9065767839526693e+01 3.5352735419856546e-01 -1.4675647299059884e+00 0 1 -2
587 398 9 4.1699999999999998e-01 -1.9451081095351128e+01 5.3229617328599801e+00 -3.6444311234056075e+00 1 -1 -2
339 315 10 -8.3399999999999996e-01 -1.9714002867357316e+01 6.4146882564052294e+00 -2.2331877201612652e-01 1 -4 -1
253 286 9 4.1699999999999998e-01 -1.5931515373325077e+01 4.3050576985841973e+00 -3.3205189397992205e-02 0 0 -1
340 315 9 4.1699999999999998e-01 -1.8772186020898936e+01 6.1927801406501430e+00 -8.2998798112660560e-02 1 -4 -1
568 391 9 4.1699999999999998e-01 -1.9653875758723782e+01 1.5871269000133574e+00 -5.4312409705393456e+00 1 -1 0
345 317 10 -8.3399999999999996e-01 -1.7448382516365641e+01 4.4108413682608596e+00 -7.2413650832729060e+00 1 1 -5
661 423 10 -8.3399999999999996e-01 -1.9477744518031358e+01 3.6416840358246030e+00 -2.1138027763190511e-02 1 1 2
61 61 8 0.0000000000000000e+00 -1.4272492835650661e+01 4.3203949431229178e+00 6.5081730396414663e+00 0 0 0
121 121 8 0.0000000000000000e+00 -1.0447638897241111e+01 4.4248538301000133e+00 3.4511381612489704e+00 0 0 0
511 372 9 4.1699999999999998e-01 -1.7102248785263804e+01 1.1476149533991191e+00 7.2907269676533684e+00 1 2 -3
38 38 8 0.0000000000000000e+00 -1.4588124975300207e+01 2.2675781679353930e+00 1.3928095672652796e+00 0 0 0
44 44 8 0.0000000000000000e+00 -1.2609545514256659e+01 2.4657043011972748e+00 3.3825970763074849e+00 0 0 0
42 42 8 0.0000000000000000e+00 -1.3765659353260547e+01 1.6395811898417869e+00 5.9686204784648851e+00 0 0 0
281 295 9 4.1699999999999998e-01 -1.7419951648922549e+01 8.6376554661535820e-01 1.7251735953349288e+00 1 -3 -1
317 307 9 4.1699999999999998e-01 -1.7513990382729602e+01 5.6650483679218961e+00 4.6355694182235752e+00 1 3 -2
39 39 8 0.0000000000000000e+00 -1.1929251918338437e+01 1.6606816515306078e+00 5.8689556919240193e-01 0 0 0
692 433 9 4.1699999999999998e-01 -1.8011491013624784e+01 1.6791693433598398e+00 5.4325932588689438e+00 1 -3 -2
43 43 8 0.0000000000000000e+00 -1.0966869545708741e+01 7.9102497235405433e-01 5.1653216086580702e+00 0 0 0
280 295 9 4.1699999999999998e-01 -1.7933180937382719e+01 1.5370545233341819e+00 3.0110144845246678e+00 1 -3 -1
54 54 8 0.0000000000000000e+00 -1.2324148803342293e+01 4.2892120532383142e+00 1.2813465756457143e+00 0 0 0
59 59 8 0.0000000000000000e+00 -1.1657889986153419e+01 3.5258175039579305e+00 5.9100289995303310e+00 0 0 0
171 259 10 -8.3399999999999996e-01 -1.8943632089561341e+01 4.5196088950794637e+00 2.8162792141978334e+00 0 -3 -2
510 372 10 -8.3399999999999996e-01 -1.6650675236125025e+01 1.7447825449193588e+00 6.6367290965415595e+00 1 2 -3
361 322 9 4.1699999999999998e-01 -1.5386148809865521e+01 4.7486268060253254e+00 2.3449794437616722e+00 1 0 0
172 259 9 4.1699999999999998e-01 -1.8302419131000132e+01 3.7609377598143285e+00 2.8545215364831642e+00 0 -3 -2
691 433 10 -8.3399999999999996e-01 -1.8602381348118907e+01 1.3390163809980735e+00 4.6966594317540222e+00 1 -3 -2
693 433 9 4.1699999999999998e-01 -1.9023015462541842e+01 5.4647367902125554e-01 5.1872409039667353e+00 1 -3 -2
22 22 8 0.0000000000000000e+00 -1.4764491739941754e+01 4.2679132830983801e-01 3.5758167709712265e+00 0 0 0
63 63 8 0.0000000000000000e+00 -1.2249792266172379e+01 6.2767559288004806e+00 6.5753810868045619e+00 0 0 0
57 57 8 0.0000000000000000e+00 -1.5353597643324948e+01 3.2084740960206970e+00 4.0428783116277449e+00 0 0 0
58 58 8 0.0000000000000000e+00 -1.3274506524359944e+01 5.1741263767866563e+00 3.9480640509042191e+00 0 0 0
362 322 9 4.1699999999999998e-01 -1.5897078236209616e+01 5.9948564253913519e+00 1.7694176566468767e+00 1 0 0
64 64 8 0.0000000000000000e+00 -1.1006595403999082e+01 7.0393616598618163e+00 4.0432084532117933e+00 0 0 0
279 295 10 -8.3399999999999996e-01 -1.7892063371905422e+01 1.6708670664110961e+00 2.0736169737695356e+00 1 -3 -1
648 418 9 4.1699999999999998e-01 -1.6455296409918969e+01 6.7743935090616541e+00 6.5467003137503035e+00 1 1 -4
360 322 10 -8.3399999999999996e-01 -1.5761492279375066e+01 5.0789350684630001e+00 1.5153736662026109e+00 1 0 0
60 60 8 0.0000000000000000e+00 -1.0202515803975144e+01 6.3315583484743536e+00 1.2517455767125139e+00 0 0 0
315 307 10 -8.3399999999999996e-01 -1.6671180350551147e+01 6.0395934827688880e+00 5.0071101366934041e+00 1 3 -2
9 9 8 0.0000000000000000e+00 -1.2956377208346712e+01 7.0224370912458705e+00 1.8878914247159810e+00 0 -1 0
512 372 9 4.1699999999999998e-01 -1.5708179422091462e+01 1.6097441320476469e+00 6.7429309539448923e+00 1 2 -3
663 423 9 4.1699999999999998e-01 -1.8928359756335190e+01 2.9567559845265019e+00 4.2112812641068997e-01 1 1 2
173 259 9 4.1699999999999998e-01 -1.9052628113017033e+01 4.5646994715217968e+00 1.8714892431024608e+00 0 -3 -2
346 317 9 4.1699999999999998e-01 -1.7069324914152357e+01 3.6616061607806012e+00 6.9908530462058920e+00 1 1 -6
543 383 10 -8.3399999999999996e-01 -1.9000793830141994e+01 6.7230032572583731e+00 6.8059316599349930e+00 1 0 -5
316 307 9 4.1699999999999998e-01 -1.6278753403908645e+01 6.5718005251275606e+00 4.3183813829408155e+00 1 3 -2
544 383 9 4.1699999999999998e-01 -1.8395083047055024e+01 5.9768987041512105e+00 6.9946543274039730e+00 1 0 -5
65 65 8 0.0000000000000000e+00 -8.0700321781552162e+00 -6.4109968759468758e+00 -6.0405206713747424e+00 0 0 0
66 66 8 0.0000000000000000e+00 -8.8202629276745874e+00 -5.7498210291819518e+00 -3.4029476823822864e+00 0 0 0
67 67 8 0.0000000000000000e+00 -6.1263300702796899e+00 -6.5172984662850677e+00 -3.8432855840502280e+00 0 0 0
70 70 8 0.0000000000000000e+00 -6.8843358519441731e+00 -5.4746769164064197e+00 -1.2338832831710771e+00 0 0 0
595 401 10 -8.3399999999999996e-01 -3.3511467458748809e+00 -4.6310173768303349e+00 -3.7751572739772516e+00 0 -1 0
81 81 8 0.0000000000000000e+00 -8.6901683194341928e+00 -3.7947586451236841e+00 -5.6991230693557178e+00 0 0 0
79 79 8 0.0000000000000000e+00 -5.1464583117314016e+00 -7.1876278840975178e+00 -6.5414253669758091e+00 0 0 1
83 83 8 0.0000000000000000e+00 -6.5596012607320988e+00 -3.7784660593096513e+00 -3.5219219975202845e+00 0 0 0
72 72 8 0.0000000000000000e+00 -5.7226115231429002e+00 -2.8464568814964428e+00 -9.7594970381649027e-01 0 0 0
224 276 9 4.1699999999999998e-01 -5.9534087564604221e-01 -2.1348003729499916e+00 -2.5532211309392077e+00 -1 -1 1
435 347 10 -8.3399999999999996e-01 -1.0280264285579275e+00 -6.3474454776041549e+00 -1.6394355051137808e+00 0 4 1
84 84 8 0.0000000000000000e+00 -6.5613679835968668e+00 -1.7692765249794455e+00 -5.8317106087803454e+00 0 0 0
572 393 9 4.1699999999999998e-01 -2.6069733653062674e+00 -1.9103464230315503e-01 -1.4348162708399521e+00 0 -1 0
597 401 9 4.1699999999999998e-01 -3.0146901477436949e+00 -5.2706980613085390e+00 -4.4230507781065480e+00 0 -1 0
19 19 8 0.0000000000000000e+00 -9.3845234680081493e+00 -3.0534634049621991e+00 -3.0156754201012088e+00 0 0 0
509 371 9 4.1699999999999998e-01 -7.7873344703865532e-02 -1.9526606554702235e+00 -5.3267314422542542e+00 0 4 1
363 323 10 -8.3399999999999996e-01 -3.5143406287585650e+00 -5.4862381075766065e-01 -6.2679697424519318e+00 0 1 -1
85 85 8 0.0000000000000000e+00 -8.5947412716089406e+00 -2.0425178109400588e+00 -5.4232082327464759e-01 0 0 0
319 308 9 4.1699999999999998e-01 -4.2968393991083396e+00 -1.5690468211198976e+00 -4.6175119683138535e+00 0 1 3
88 88 8 0.0000000000000000e+00 -6.2599868668129490e+00 -2.6972606420239686e-02 -5.6939136265473567e-01 0 0 0
323 309 9 4.1699999999999998e-01 -4.1376592238765246e+00 -4.4931138038790088e+00 -1.0604566271566760e+00 0 5 -1
267 291 10 -8.3399999999999996e-01 -3.0276649893738563e+00 -7.2566931868242577e+00 -4.7545657841181708e+00 -1 -1 0
321 309 10 -8.3399999999999996e-01 -3.8878432996794623e+00 -5.4766689241766784e+00 -1.1177680762284379e+00 0 5 -1
20 20 8 0.0000000000000000e+00 -9.4211686625394400e+00 -1.0253306733246197e+00 -5.1986786155939164e+00 0 0 0
571 393 10 -8.3399999999999996e-01 -3.1652885461577580e+00 -9.3959156391513154e-01 -1.3519938385742218e+00 0 -1 0
147 129 1 8.9999999999999997e-02 -9.7532528351713099e-01 -4.5198417638813515e+00 -6.8705052765351518e+00 0 0 1
68 68 8 0.0000000000000000e+00 -5.8808766155401333e+00 -4.5575150215156706e+00 -6.2028395197758668e+00 0 0 0
320 308 9 4.1699999999999998e-01 -4.0832294590404716e+00 -2.7771053098882779e+00 -3.7464144624351432e+00 0 1 3
82 82 8 0.0000000000000000e+00 -7.3535586508564963e+00 -1.1943764164598498e+00 -3.0456357693757639e+00 0 0 0
436 347 9 4.1699999999999998e-01 -1.9564721069803968e+00 -6.3787047170744771e+00 -1.5331981980027556e+00 0 4 1
437 347 9 4.1699999999999998e-01 -8.8918425262305745e-01 -5.7853145233203449e+00 -7.5422426599698644e-01 0 4 1
318 308 10 -8.3399999999999996e-01 -4.3261421346862221e+00 -1.8467977715536898e+00 -3.6707565287128756e+00 0 1 3
8 8 8 0.0000000000000000e+00 -9.6515232514957052e+00 -4.7949594659964019e+00 -7.4566437229371374e-01 0 0 0
322 309 9 4.1699999999999998e-01 -3.8261875230604563e+00 -5.6859211660852598e+00 -2.1490684049420097e-01 0 5 -1
596 401 9 4.1699999999999998e-01 -3.7705778126702918e+00 -5.1392834433671677e+00 -3.0032278153595326e+00 0 -1 0
150 129 1 8.9999999999999997e-02 -2.6516444134176131e+00 -3.0958295266655864e+00 -6.4541234497096118e+00 0 0 1
365 323 9 4.1699999999999998e-01 -2.7995728801496460e+00 -2.1902830184261249e-01 -6.8170405726056078e+00 0 1 -1
573 393 9 4.1699999999999998e-01 -3.7752444107089840e+00 -9.3398908579315087e-01 -2.1755876897241353e+00 0 -1 0
222 276 10 -8.3399999999999996e-01 -8.4748702653277874e-01 -2.2260454772557341e+00 -3.5390503090336516e+00 -1 -1 1
223 276 9 4.1699999999999998e-01 -1.7651017861125438e+00 -2.6441296736863182e+00 -3.5288856043099579e+00 -1 -1 1
298 301 9 4.1699999999999998e-01 -2.9416590405344665e+00 -2.3327302803041978e+00 -3.0238395375123400e-01 0 0 0
364 323 9 4.1699999999999998e-01 -4.1554422633866555e+00 -1.4435284485979433e-01 -6.8101408842464135e+00 0 1 -1
148 129 1 8.9999999999999997e-02 -2.4486333878733393e+00 -5.4826371524031794e+00 -6.9793749406876469e+00 0 0 1
493 366 9 4.1699999999999998e-01 -4.2943392864287089e-01 -3.7118969639919048e+00 -3.0058337836388732e-01 0 0 -1
76 76 8 0.0000000000000000e+00 -5.9302682849758304e+00 -4.5617941636833628e+00 1.2726637730004811e+00 0 0 0
138 129 1 8.9999999999999997e-02 -1.8108876430802248e+00 -4.5429292887673798e+00 3.0547779989444290e+00 0 0 0
158 129 3 -1.7999999999999999e-01 -1.0603702923664622e+00 -7.9213625399043264e-01 4.6496356907536738e+00 0 0 0
155 129 3 -1.7999999999999999e-01 -1.7002402555341913e+00 -2.0985784903363309e+00 5.1782011775831212e+00 0 0 0
143 129 3 -1.7999999999999999e-01 -1.2997768983194644e+00 -5.3573349579623670e+00 5.9888935904204752e+00 0 0 0
146 129 3 -1.7999999999999999e-01 -1.8348262681810137e+00 -4.7292213124281135e+00 7.3413321094949966e+00 0 0 0
134 129 3 -2.8000000000000003e-01 -2.7914227406445060e+00 -6.1604436492436090e+00 2.4747256126664130e+00 0 0 0
151 129 1 8.9999999999999997e-02 -3.4617224321113258e+00 -3.3658168598186000e+00 6.6491648447603078e+00 0 0 0
77 77 8 0.0000000000000000e+00 -7.4576373059780412e+00 -7.3924708422760972e+00 6.0460743124535021e+00 0 0 0
140 129 3 -1.7999999999999999e-01 -2.3002706954703669e+00 -5.6086184747453798e+00 4.8464077705725161e+00 0 0 0
135 129 1 8.9999999999999997e-02 -3.7498322386156633e+00 -5.6491911132261388e+00 2.6500225961882591e+00 0 0 0
141 129 1 8.9999999999999997e-02 -2.9076916587904100e+00 -6.5783014789625360e+00 4.9613986219189989e+00 0 0 0
96 96 8 0.0000000000000000e+00 -5.6001226700144517e+00 -7.1870871047559082e-01 3.9159551903510832e+00 0 0 0
74 74 8 0.0000000000000000e+00 -8.8915698871035271e+00 -5.6051335247005252e+00 4.0358200184277004e+00 0 0 0
75 75 8 0.0000000000000000e+00 -6.1680514422804640e+00 -6.3996524188610966e+00 3.3947085508792259e+00 0 0 0
87 87 8 0.0000000000000000e+00 -6.5739935948872512e+00 -1.8614659902462247e+00 1.5815975481520494e+00 0 0 0
161 129 3 -1.7999999999999999e-01 -1.1427802967057150e+00 -6.2817683204362273e-01 3.1042322106231639e+00 0 0 0
80 80 8 0.0000000000000000e+00 -5.1415442339309925e+00 -5.3856416109915530e+00 5.9591667718648518e+00 0 0 0
89 89 8 0.0000000000000000e+00 -8.6578200896325654e+00 -3.7908854634098526e+00 1.6960251263004908e+00 0 0 0
163 129 1 8.9999999999999997e-02 -5.4017535937536187e-01 -1.4659793300533590e+00 2.5414585151017017e+00 0 0 0
91 91 8 0.0000000000000000e+00 -4.9098193714572531e+00 -3.7625906559941593e+00 3.6931192362146996e+00 0 0 0
93 93 8 0.0000000000000000e+00 -7.5813443466959081e+00 -2.8158218250976361e+00 4.2595208192245941e+00 0 0 0
297 301 10 -8.3399999999999996e-01 -2.9560188373506060e+00 -3.2032728497642862e+00 2.0083895617893743e-01 0 0 0
95 95 8 0.0000000000000000e+00 -5.8300876282601104e+00 -2.6078745715579545e+00 6.3415534754418248e+00 0 0 0
78 78 8 0.0000000000000000e+00 -7.9295102691374231e+00 -4.6136319019015541e+00 6.4970013289831190e+00 0 0 0
154 129 1 8.9999999999999997e-02 -1.7388421995460785e+00 -1.2432624763453362e+00 7.0792923199138702e+00 0 0 0
137 129 3 -1.7999999999999999e-01 -1.7216312900644770e+00 -5.6141025366771578e+00 3.4524726497424219e+00 0 0 0
90 90 8 0.0000000000000000e+00 -9.1408602706509825e+00 -1.0943490022835081e+00 2.2429593727016690e+00 0 0 0
139 129 1 8.9999999999999997e-02 -6.8687263721600167e-01 -5.9647119777360409e+00 3.2872809624861277e+00 0 0 0
73 73 8 0.0000000000000000e+00 -8.1342418721617804e+00 -6.5043222501187437e+00 1.1937060217060487e+00 0 0 0
136 129 1 8.9999999999999997e-02 -2.4524337354088797e+00 -5.9866978172026162e+00 1.3692709608549538e+00 0 0 0
156 129 1 8.9999999999999997e-02 -2.7774301547992586e+00 -2.0576492799939752e+00 4.8690650337614194e+00 0 0 0
71 71 8 0.0000000000000000e+00 -5.3517110958457961e+00 -7.3227464326428642e+00 6.6296391465351256e-01 0 0 0
157 129 1 8.9999999999999997e-02 -1.1640527324767096e+00 -2.8476212982102869e+00 4.5707362670307861e+00 0 0 0
94 94 8 0.0000000000000000e+00 -8.4882401853494667e+00 -1.8763488708876523e+00 6.9201656198134058e+00 0 0 0
142 129 1 8.9999999999999997e-02 -2.9232485563285366e+00 -4.7034588974144498e+00 4.9209623275382333e+00 0 0 0
299 301 9 4.1699999999999998e-01 -3.3576077407726190e+00 -2.9595411116321095e+00 1.0575986627740366e+00 0 0 0