LAMMPS data file via write_data, version 16 Mar 2018, timestep = 2500

714 atoms
12 atom types
403 bonds
8 bond types
260 angles
13 angle types
132 dihedrals
18 dihedral types

-1.9725386000000000e+01 1.9725386000000000e+01 xlo xhi
-7.3970199000000001e+00 7.3970199000000001e+00 ylo yhi
-7.3970199000000001e+00 7.3970199000000001e+00 zlo zhi

Masses

1 1.008
2 1.008
3 12.011
4 12.011
5 15.9994
6 15.9994
7 32.06
8 196.966
9 1.008
10 15.9994
11 35.45
12 22.9898

Pair Coeffs # lj/charmmfsw/coul/long

1 0.028 2.38761 0.028 2.38761
2 0.024 2.38761 0.024 2.38761
3 0.056 3.58141 0.01 3.38542
4 0.078 3.63487 0.01 3.38542
5 0.1 2.93997 0.1 2.93997
6 0.12 3.02906 0.12 3.02906
7 0.47 3.74177 0.47 3.74177
8 5.29 2.62904 5.29 2.62904
9 0.046 0.400014 0.046 0.400014
10 0.1521 3.15057 0.1521 3.15057
11 0.15 4.04468 0.15 4.04468
12 0.0469 2.42993 0.0469 2.42993

Bond Coeffs # harmonic

1 222.5 1.53
2 222.5 1.528
3 309 1.111
4 340 1.43
5 322 1.111
6 450 0.9572
7 540 1.448
8 250 1.575

Angle Coeffs # charmm

1 58.35 113.6 11.16 2.561
2 58 115 8 2.561
3 26.5 110.1 22.53 2.179
4 75.7 110.1 0 0
5 34.6 110.1 22.53 2.179
6 15 109 27 1.9
7 34.6 110.1 22.53 2.179
8 35.5 109 5.4 1.802
9 60 109.5 0 0
10 35.5 108.4 5.4 1.802
11 55 104.52 0 0
12 130 109.47 35 2.45
13 85 98 0 0

Dihedral Coeffs # charmmfsw

1 0.101 2 0 1
2 0.142 3 180 0
3 0.074 4 0 0
4 0.097 5 0 0
5 0.162 2 0 1
6 0.047 3 180 0
7 0.105 4 0 0
8 0.177 5 0 0
9 0.19 3 0 1
10 0 3 0 1
11 0.16 3 0 1
12 0 3 0 1
13 0 3 0 1
14 0.19 3 0 1
15 0.19 3 0 1
16 0.19 3 0 1
17 0.16 3 0 1
18 0 3 0 1

Atoms # full

1 1 8 0.0000000000000000e+00 -1.3109751132784140e+01 -6.5250350739344603e+00 -6.5388567605857695e+00 0 0 0
2 2 8 0.0000000000000000e+00 -1.2814405425295085e+01 -4.5087248887305513e+00 -4.3467019410965291e+00 0 0 0
3 3 8 0.0000000000000000e+00 -1.0757012302326046e+01 -6.6058986339400416e+00 -4.2402667169276418e+00 0 0 0
4 4 8 0.0000000000000000e+00 -1.0649898841353554e+01 -4.8077859216330401e+00 -6.5354109336409216e+00 0 0 0
5 5 8 0.0000000000000000e+00 -1.3583166434043628e+01 -6.9819701332410897e+00 -3.2812886599302331e+00 0 0 0
6 6 8 0.0000000000000000e+00 -1.3406502003492736e+01 -4.9997341879352595e+00 -1.3533096735006394e+00 0 0 0
8 8 8 0.0000000000000000e+00 -1.0319017455446676e+01 -5.0971671084044603e+00 -1.4902428401303183e+00 0 0 0
17 17 8 0.0000000000000000e+00 -1.2752823044185202e+01 -3.0264793402053494e+00 7.2828767586345169e+00 0 0 -1
18 18 8 0.0000000000000000e+00 -1.2359839234941218e+01 -1.8283986539682537e+00 -4.8421464781116104e+00 0 0 0
19 19 8 0.0000000000000000e+00 -1.0160610957031228e+01 -3.6718366875658157e+00 -4.0389344382522472e+00 0 0 0
20 20 8 0.0000000000000000e+00 -1.0031233110877936e+01 -2.0122767355464850e+00 -6.4694648319290042e+00 0 0 0
21 21 8 0.0000000000000000e+00 -1.4706132278443761e+01 -2.5902443523339196e+00 -3.2264188462980958e+00 0 0 0
23 23 8 0.0000000000000000e+00 -1.1988166525960109e+01 -2.5690125578525578e+00 -2.1708152781911569e+00 0 0 0
177 261 10 -8.3399999999999996e-01 -1.5232102430368315e+01 -4.6798724147997941e+00 -5.7602165902219795e+00 0 0 0
178 261 9 4.1699999999999998e-01 -1.4283400449616446e+01 -4.7208365419003249e+00 -5.8807089986201095e+00 0 0 0
179 261 9 4.1699999999999998e-01 -1.5528857282592154e+01 -4.0403619297170748e+00 -6.4076691294693244e+00 0 0 0
183 263 10 -8.3399999999999996e-01 -1.6174897937395905e+01 -5.0107365062748839e+00 -3.0633556595660769e+00 0 0 0
184 263 9 4.1699999999999998e-01 -1.5787764577267268e+01 -4.8359628098396188e+00 -3.9211517519237158e+00 0 0 0
185 263 9 4.1699999999999998e-01 -1.7094511487464008e+01 -4.7634230662980617e+00 -3.1602006406523171e+00 0 0 0
219 275 10 -8.3399999999999996e-01 -1.7122166023743738e+01 -2.9898039373563656e+00 -1.1664338588114955e+00 0 0 0
220 275 9 4.1699999999999998e-01 -1.6852557054857950e+01 -3.8767870380421843e+00 -1.4047699806815082e+00 0 0 0
221 275 9 4.1699999999999998e-01 -1.7976677638004244e+01 -2.8785780809992350e+00 -1.5831725552965055e+00 0 0 0
260 288 9 4.1699999999999998e-01 -1.6228587447683172e+01 -6.0847602904507605e+00 -5.6751878239662839e+00 0 1 0
25 25 8 0.0000000000000000e+00 -1.4195927495583677e+01 -2.2129575526512846e+00 -4.2921926693476709e-01 0 0 0
237 281 10 -8.3399999999999996e-01 -1.5373381819075798e+01 -6.3912209817091514e-01 -5.6460114965403800e+00 0 0 1
238 281 9 4.1699999999999998e-01 -1.5985660213790228e+01 -2.2787794152535334e-01 -6.2561143513295034e+00 0 0 1
239 281 9 4.1699999999999998e-01 -1.5173006272220098e+01 4.6275577872838987e-02 -5.0085852568952829e+00 0 0 1
265 290 9 4.1699999999999998e-01 -1.7029263407911664e+01 -7.3642879336699218e+00 -9.0262656679293785e-01 0 1 0
216 274 10 -8.3399999999999996e-01 -1.6681194465331135e+01 -2.8014609009152736e-01 -2.0174077659382519e+00 0 0 0
217 274 9 4.1699999999999998e-01 -1.6501836852187381e+01 -1.2029331800993828e+00 -2.1977594951367139e+00 0 0 0
258 288 10 -8.3399999999999996e-01 -1.6991266922480385e+01 -6.6183833154614531e+00 -5.4520320521760608e+00 0 1 0
259 288 9 4.1699999999999998e-01 -1.7740206979139732e+01 -6.1054171601800045e+00 -5.7556545578268778e+00 0 1 0
658 422 10 -8.3399999999999996e-01 -1.9532780694287066e+01 -1.5994680756650854e+00 -2.2891342661686602e+00 1 0 0
218 274 9 4.1699999999999998e-01 -1.7612231542536474e+01 -2.5533890894616190e-01 -1.7965309886485934e+00 0 0 0
266 290 9 4.1699999999999998e-01 -1.6710025275615386e+01 -6.8452903449228959e+00 -2.2884922932683280e+00 0 1 0
180 262 10 -8.3399999999999996e-01 -1.9079775681607384e+01 -4.1113622865138746e+00 -3.2899203267068238e+00 0 0 0
24 24 8 0.0000000000000000e+00 -9.9071206722200635e+00 -9.2077537666059750e-01 -3.5804903821763738e+00 0 0 0
698 435 9 4.1699999999999998e-01 -1.9620959402521869e+01 4.4079110191084725e+00 -4.0373002962993143e-01 1 0 0
242 282 9 4.1699999999999998e-01 -1.8205707598941775e+01 1.0911733380145017e+00 7.1305238553160466e+00 0 0 0
438 348 10 -8.3399999999999996e-01 -4.0094634944518409e-01 5.0712850588990266e+00 -6.3288427477157061e+00 0 0 1
360 322 10 -8.3399999999999996e-01 -4.2874427867093229e-01 7.2185286136474867e+00 5.3412749460519935e+00 0 -1 -1
410 338 9 4.1699999999999998e-01 -1.6336260815636802e-01 -6.9381618851993432e-01 -2.6326530968865405e+00 0 0 0
244 283 9 4.1699999999999998e-01 -1.8860236642263015e+01 4.3124035041339335e+00 6.8745168640519383e+00 0 0 -1
374 326 9 4.1699999999999998e-01 -7.4214407283342132e-01 -4.4959773951257516e+00 -8.2150003444522846e-01 0 0 0
182 262 9 4.1699999999999998e-01 -1.9184917911620012e+01 -4.0878645790038828e+00 -4.2410380128303693e+00 0 0 0
65 65 8 0.0000000000000000e+00 -8.4580848380709881e+00 -6.8010630843243396e+00 -6.0292487250536793e+00 0 0 0
66 66 8 0.0000000000000000e+00 -8.1326989271069525e+00 -5.5472877044854982e+00 -3.4514884861774671e+00 0 0 0
67 67 8 0.0000000000000000e+00 -5.8324653382959992e+00 -5.6731820407316444e+00 -5.0556042158182990e+00 0 0 0
70 70 8 0.0000000000000000e+00 -7.7185835605704503e+00 -4.4416560534144951e+00 -5.7389156665941343e-01 0 0 0
71 71 8 0.0000000000000000e+00 -6.7531615326600987e+00 -6.9632138055974568e+00 -1.1938400200080104e+00 0 0 0
72 72 8 0.0000000000000000e+00 -4.0857941421567281e+00 -7.0904814216201011e+00 -2.4362391409391195e+00 0 0 0
81 81 8 0.0000000000000000e+00 -7.9344439028338796e+00 -3.8475555024422037e+00 -5.7329328044559258e+00 0 0 0
82 82 8 0.0000000000000000e+00 -7.6061021619566009e+00 -1.0304312552637152e+00 -5.3712447592880297e+00 0 0 0
83 83 8 0.0000000000000000e+00 -5.4430953414208165e+00 -4.6118675059352583e+00 -2.4788886416278055e+00 0 0 0
84 84 8 0.0000000000000000e+00 -5.3959921310258316e+00 -2.7885896824059828e+00 -4.8001289846171273e+00 0 0 0
85 85 8 0.0000000000000000e+00 -7.7545835272841810e+00 -2.6071700898720374e+00 -3.0373897443273616e+00 0 0 0
86 86 8 0.0000000000000000e+00 -9.5948011998547074e+00 -2.3920823507833173e+00 -7.3514526466124086e-01 0 0 0
87 87 8 0.0000000000000000e+00 -5.9069667879563239e+00 -2.3292250531425291e+00 -7.9483279069905588e-01 0 0 0
88 88 8 0.0000000000000000e+00 -5.6695131633237237e+00 -6.3858264355204719e-01 -3.0415932102064356e+00 0 0 0
279 295 10 -8.3399999999999996e-01 -2.4985818667623851e+00 -3.6216546032145835e+00 6.3089531905940994e+00 0 0 -1
280 295 9 4.1699999999999998e-01 -2.8464445897767114e+00 -2.8763150430597477e+00 6.7985388961173889e+00 0 0 -1
285 297 10 -8.3399999999999996e-01 -1.9297649071985170e+00 -5.9302303028200534e+00 -4.2647499331938556e+00 0 0 0
287 297 9 4.1699999999999998e-01 -2.1823885148291082e+00 -5.0133744127537314e+00 -4.1561744323431915e+00 0 0 0
288 298 10 -8.3399999999999996e-01 -3.0746364994228523e+00 -1.3740419153232870e+00 -2.0780979923937344e+00 0 0 0
289 298 9 4.1699999999999998e-01 -3.2429255332497773e+00 -5.0327356945435953e-01 -1.7179951543032059e+00 0 0 0
290 298 9 4.1699999999999998e-01 -3.0585997241443765e+00 -1.2427038296587827e+00 -3.0261094189276561e+00 0 0 0
306 304 10 -8.3399999999999996e-01 -3.0215221844913138e+00 -4.4429882097185397e-01 -4.7777031048707590e+00 0 0 0
369 325 10 -8.3399999999999996e-01 -2.1012444270039032e+00 -3.1796198312137935e+00 -4.5581573220983742e+00 0 0 0
101 101 8 0.0000000000000000e+00 -7.9185356480038003e+00 -2.8469766176593503e-01 -1.1908891658308198e+00 0 0 0
334 313 9 4.1699999999999998e-01 -3.2925719189041609e+00 7.0205131852074194e+00 -5.1025252947468873e+00 0 0 0
111 111 8 0.0000000000000000e+00 -5.2439537910680629e+00 -1.0199706752996800e+00 -7.0479442090710647e+00 0 0 1
286 297 9 4.1699999999999998e-01 -2.0156048968556419e+00 -6.0931946624632456e+00 -5.2040614074510465e+00 0 0 0
371 325 9 4.1699999999999998e-01 -2.7315331592458425e+00 -2.4921714070857992e+00 -4.7735236582572549e+00 0 0 0
291 299 10 -8.3399999999999996e-01 -2.5651143698967283e+00 -3.9122770296466780e+00 -1.2741190596196914e+00 0 0 0
347 317 9 4.1699999999999998e-01 -1.3925572544299547e+00 -6.4650670882487411e+00 -2.9089510602315888e-01 0 1 0
293 299 9 4.1699999999999998e-01 -2.7283971783190033e+00 -2.9758927827072248e+00 -1.3870585676432741e+00 0 0 0
340 315 9 4.1699999999999998e-01 -8.6125093425941779e-01 -7.3607918814764961e+00 -3.4142526442864574e+00 0 1 0
362 322 9 4.1699999999999998e-01 -8.9027056057674980e-01 -6.8503024761941758e+00 4.9202076218059938e+00 0 0 -1
335 313 9 4.1699999999999998e-01 -3.6189497044781249e+00 5.8231304076265502e+00 -4.2355493744789037e+00 0 0 0
292 299 9 4.1699999999999998e-01 -3.4317861462620982e+00 -4.3151312631791843e+00 -1.3272268109863661e+00 0 0 0
346 317 9 4.1699999999999998e-01 -2.4219696740335488e+00 -6.1603293099647374e+00 7.7650387206088922e-01 0 1 0
370 325 9 4.1699999999999998e-01 -1.4946276995364609e+00 -2.7653388533505856e+00 -3.9444641494648569e+00 0 0 0
420 342 10 -8.3399999999999996e-01 -1.1270612577016408e+00 3.4005981180860569e+00 -5.2072162264660393e-01 0 0 0
136 129 1 8.9999999999999997e-02 -1.0017952949915931e+00 -1.2481616030821701e+00 1.3960688312646707e+00 0 0 0
409 338 9 4.1699999999999998e-01 -1.3625467135987188e+00 -1.6163275876284111e+00 -2.5794985476431442e+00 0 0 0
408 338 10 -8.3399999999999996e-01 -4.4310672436326798e-01 -1.5845433654695793e+00 -2.8437933343716093e+00 0 0 0
7 7 8 0.0000000000000000e+00 -1.1747410111882255e+01 7.3084557954072693e+00 -1.0678566365815212e+00 0 -1 0
30 30 8 0.0000000000000000e+00 -1.2142000044294852e+01 -9.9632667271110933e-02 -7.0753476575492495e+00 0 0 1
22 22 8 0.0000000000000000e+00 -1.3435307245074478e+01 6.4740814405565283e-02 -2.0093648503991779e+00 0 0 0
264 290 10 -8.3399999999999996e-01 -1.6870044420692281e+01 7.1406107992219496e+00 -1.8011134813887417e+00 0 0 0
396 334 10 -8.3399999999999996e-01 -4.5373370393328022e-01 1.1981268825171192e+00 -3.2336742485216310e+00 0 0 0
685 431 10 -8.3399999999999996e-01 -1.8209862865687725e+01 -2.4631358445587662e-01 -4.5544908488264948e+00 1 0 0
652 420 10 -8.3399999999999996e-01 -1.9557176262277778e+01 3.4267443635354562e+00 -5.2180686120425417e+00 1 0 0
33 33 8 0.0000000000000000e+00 -1.1731656855216169e+01 2.7017792873915414e+00 -6.7055289485916543e+00 0 0 0
34 34 8 0.0000000000000000e+00 -1.3476267140444090e+01 3.5579583174761860e+00 -4.8310870402328456e+00 0 0 0
37 37 8 0.0000000000000000e+00 -1.2187883997654509e+01 1.0420842413714249e+00 -4.4196400302961631e+00 0 0 0
38 38 8 0.0000000000000000e+00 -1.2616006955583526e+01 2.9859636501978026e+00 -2.2624441530382935e+00 0 0 0
39 39 8 0.0000000000000000e+00 -1.0529709473350179e+01 1.1790548544401303e+00 -1.8215243439387159e+00 0 0 0
40 40 8 0.0000000000000000e+00 -1.0268053122211716e+01 3.0701585758932270e+00 -3.9362427844288246e+00 0 0 0
50 50 8 0.0000000000000000e+00 -1.4698278311973288e+01 6.1253242970195645e+00 -5.1966654770229468e+00 0 0 0
51 51 8 0.0000000000000000e+00 -1.1889637021272939e+01 5.6524414059756456e+00 -6.0834694567689827e+00 0 0 0
53 53 8 0.0000000000000000e+00 -1.4637536810446145e+01 5.1804221496408820e+00 -2.4301506324547826e+00 0 0 0
55 55 8 0.0000000000000000e+00 -1.0287395394763486e+01 4.3658900841718182e+00 -1.2423040672979231e+00 0 0 0
56 56 8 0.0000000000000000e+00 -1.1715597865182477e+01 5.5311252215911768e+00 -3.3073293146595857e+00 0 0 0
210 272 10 -8.3399999999999996e-01 -1.6466235220684531e+01 3.3155252211745050e+00 -5.8671034657992944e+00 0 0 0
211 272 9 4.1699999999999998e-01 -1.6802535051513562e+01 4.0277348901523844e+00 -5.3231440641900747e+00 0 0 0
212 272 9 4.1699999999999998e-01 -1.5744397021885185e+01 2.9456226957092575e+00 -5.3588183854622562e+00 0 0 0
222 276 10 -8.3399999999999996e-01 -1.5538746159112288e+01 1.4914616029004482e+00 -3.5968892375630648e+00 0 0 0
223 276 9 4.1699999999999998e-01 -1.6332995346930790e+01 1.9976678058706643e+00 -3.4261388224289475e+00 0 0 0
224 276 9 4.1699999999999998e-01 -1.5663399556726789e+01 6.7747697863266454e-01 -3.1089113055387476e+00 0 0 0
246 284 10 -8.3399999999999996e-01 -1.7315124079747449e+01 5.6123881521717891e+00 -4.0927284835049962e+00 0 0 0
247 284 9 4.1699999999999998e-01 -1.7583747419262021e+01 6.3695635239219062e+00 -4.6130737430521123e+00 0 0 0
248 284 9 4.1699999999999998e-01 -1.7049918507850649e+01 5.9818918727497801e+00 -3.2504903789726209e+00 0 0 0
249 285 10 -8.3399999999999996e-01 -1.7622170189356453e+01 3.0970708839777243e+00 -2.8725848343412630e+00 0 0 0
250 285 9 4.1699999999999998e-01 -1.7672681446995288e+01 3.9515291489995841e+00 -3.3010500359765551e+00 0 0 0
251 285 9 4.1699999999999998e-01 -1.7462047225595587e+01 3.2998590657108728e+00 -1.9509180497393779e+00 0 0 0
255 287 10 -8.3399999999999996e-01 -1.7356011183994045e+01 4.6790275193544453e+00 -6.3922443591216616e-01 0 0 0
256 287 9 4.1699999999999998e-01 -1.7499262360715107e+01 5.5175181093539578e+00 -1.0781374708677349e+00 0 0 0
257 287 9 4.1699999999999998e-01 -1.6908199728665764e+01 4.9078955262016768e+00 1.7521830594371254e-01 0 0 0
57 57 8 0.0000000000000000e+00 -1.4989992200922192e+01 2.6794196043407572e+00 -8.5135865398962274e-01 0 0 0
241 282 9 4.1699999999999998e-01 -1.7136640015962602e+01 1.6020167393345945e+00 -6.7211630638448607e+00 0 0 1
240 282 10 -8.3399999999999996e-01 -1.7485629097876245e+01 7.9772824850962176e-01 -7.1052965905975922e+00 0 0 1
686 431 9 4.1699999999999998e-01 -1.8007426716434228e+01 1.9761238168736159e-01 -5.3780085502415735e+00 1 0 0
687 431 9 4.1699999999999998e-01 -1.8139899569592910e+01 4.3837774838682098e-01 -3.8892576239886920e+00 1 0 0
434 346 9 4.1699999999999998e-01 -1.0252098491238757e+00 5.7319071436291793e+00 3.2182397394793423e+00 0 0 0
49 49 8 0.0000000000000000e+00 -1.4089969485564987e+01 4.5963609574288462e+00 7.3482840025817007e+00 0 0 -1
229 278 9 4.1699999999999998e-01 -1.6538722060624693e+01 2.3665305857689907e+00 1.3685590137279495e+00 0 0 0
135 129 1 8.9999999999999997e-02 -9.6930089323796778e-02 -1.8761834175568586e+00 2.7931460074998458e+00 0 0 0
97 97 8 0.0000000000000000e+00 -7.4075374072725459e+00 6.0307427944126513e-01 7.0701559979410140e+00 0 0 -1
267 291 10 -8.3399999999999996e-01 -1.9522687845074707e+01 3.3288615564899851e+00 2.6875701576915407e+00 0 0 0
308 304 9 4.1699999999999998e-01 -2.6208282982281115e+00 -3.7681894086871653e-01 -5.6443766063868441e+00 0 0 0
339 315 10 -8.3399999999999996e-01 -5.4522771503050471e-01 6.5605757117744785e+00 -3.6483566269138237e+00 0 0 0
391 332 9 4.1699999999999998e-01 -2.9713949208810889e-02 -5.4956535755268803e+00 -3.8197834812801061e+00 0 0 0
343 316 9 4.1699999999999998e-01 -3.7915183158411687e+00 5.5065274175277041e+00 9.2932883647089487e-02 0 0 0
307 304 9 4.1699999999999998e-01 -3.3249760529749128e+00 4.4259734239749832e-01 -4.5838917321186106e+00 0 0 0
312 306 10 -8.3399999999999996e-01 -2.8934746617795373e+00 1.1288667577329303e+00 -1.1173525485804399e+00 0 0 0
314 306 9 4.1699999999999998e-01 -2.1896748730240119e+00 1.7771352750441041e+00 -1.1427629062544602e+00 0 0 0
69 69 8 0.0000000000000000e+00 -9.2572489462180467e+00 6.8771479805316087e+00 -2.2470491130581558e+00 0 -1 0
35 35 8 0.0000000000000000e+00 -9.7529972595809564e+00 8.3290252225133599e-01 -5.9239173388954987e+00 0 0 0
98 98 8 0.0000000000000000e+00 -8.0733485558168034e+00 1.3474898511707940e+00 -3.4771899849238719e+00 0 0 0
99 99 8 0.0000000000000000e+00 -5.8511127719368146e+00 1.1113602373466704e+00 -5.2898347436299531e+00 0 0 0
102 102 8 0.0000000000000000e+00 -8.0549763514103336e+00 2.4784064819654432e+00 -6.1832016932360745e-01 0 0 0
104 104 8 0.0000000000000000e+00 -5.6463741593972339e+00 2.0846471594475831e+00 -2.2201353651968625e+00 0 0 0
113 113 8 0.0000000000000000e+00 -8.1225301972915922e+00 3.1151164614779034e+00 -5.7680385676486505e+00 0 0 0
114 114 8 0.0000000000000000e+00 -9.3285671387323017e+00 5.6974943177658721e+00 -4.8954875410743268e+00 0 0 0
115 115 8 0.0000000000000000e+00 -5.6871409908025292e+00 3.9216814612814277e+00 -4.4351362177254527e+00 0 0 0
116 116 8 0.0000000000000000e+00 -6.6492718678393503e+00 5.6822709830569105e+00 -6.3286992946613418e+00 0 0 0
117 117 8 0.0000000000000000e+00 -7.9718007570095599e+00 4.2171604573270765e+00 -2.9544059204188198e+00 0 0 0
119 119 8 0.0000000000000000e+00 -5.3906638259955022e+00 5.0444026659595327e+00 -1.8020558928881920e+00 0 0 0
120 120 8 0.0000000000000000e+00 -6.7718644042632139e+00 6.7200865402789027e+00 -3.7371743654297247e+00 0 0 0
324 310 10 -8.3399999999999996e-01 -3.1916243110160201e+00 4.5806957456732338e+00 -6.8172676772930503e+00 0 0 0
325 310 9 4.1699999999999998e-01 -3.2423851468675475e+00 5.3617102872680951e+00 -6.2662035419671929e+00 0 0 0
330 312 10 -8.3399999999999996e-01 -2.8372173345219527e+00 2.4381242376008618e+00 -4.3603386085049403e+00 0 0 0
331 312 9 4.1699999999999998e-01 -3.1456654545879901e+00 3.2584080601447032e+00 -3.9753372440272541e+00 0 0 0
332 312 9 4.1699999999999998e-01 -3.4273030316087416e+00 2.2822880668358234e+00 -5.0977299843790513e+00 0 0 0
333 313 10 -8.3399999999999996e-01 -3.8627431838464967e+00 6.2531137148747362e+00 -5.0552511653790253e+00 0 0 0
336 314 10 -8.3399999999999996e-01 -2.6945089172018277e+00 4.8038661388148913e+00 -2.9015548947186343e+00 0 0 0
337 314 9 4.1699999999999998e-01 -2.7252041560340925e+00 4.6366466733261413e+00 -1.9595742911405174e+00 0 0 0
338 314 9 4.1699999999999998e-01 -1.8319612236853318e+00 5.1920398127487912e+00 -3.0484045324856868e+00 0 0 0
313 306 9 4.1699999999999998e-01 -3.0893415530816832e+00 1.0236526059961146e+00 -1.8633255617970432e-01 0 0 0
103 103 8 0.0000000000000000e+00 -5.3956557479673650e+00 3.2878683635959038e-01 8.4459380831908112e-02 0 0 0
321 309 10 -8.3399999999999996e-01 -3.0440932751041676e+00 2.0100250533687452e+00 -7.2535553262667145e+00 0 0 1
323 309 9 4.1699999999999998e-01 -3.0740799845132059e+00 2.9225431401497062e+00 -6.9660776149676096e+00 0 0 1
440 348 9 4.1699999999999998e-01 -1.3124160866798003e+00 4.8700101404621625e+00 -6.5408411951562675e+00 0 0 1
342 316 10 -8.3399999999999996e-01 -2.8975258701443170e+00 5.3490392039323611e+00 -2.1072316925674386e-01 0 0 0
344 316 9 4.1699999999999998e-01 -2.4975392017204929e+00 6.2181554140121644e+00 -2.4038238553979108e-01 0 0 0
345 317 10 -8.3399999999999996e-01 -2.0867918078392220e+00 -6.8702217937795220e+00 2.2883561907435912e-01 0 1 0
653 420 9 4.1699999999999998e-01 -1.9257237751086745e+01 3.6762915180087505e+00 -4.3440005602611169e+00 1 0 0
208 271 9 4.1699999999999998e-01 -1.7084100116375886e+01 -2.9031540444224824e+00 -6.6580318759567714e+00 0 0 0
173 259 9 4.1699999999999998e-01 -1.5347337169205636e+01 -2.0658645881367770e+00 -7.1120093010968137e+00 0 0 0
52 52 8 0.0000000000000000e+00 -1.0467176487514235e+01 -7.2586395528898615e+00 6.8099820091710290e+00 0 1 -1
9 9 8 0.0000000000000000e+00 -1.4091739623821789e+01 -7.0401920029628569e+00 6.8787841005786710e-01 0 0 0
192 266 10 -8.3399999999999996e-01 -1.7773735063674167e+01 -6.2989500106407750e+00 7.0764458280832387e-01 0 0 0
194 266 9 4.1699999999999998e-01 -1.7234887906576617e+01 -6.9339353757055857e+00 1.1795229887057253e+00 0 0 0
171 259 10 -8.3399999999999996e-01 -1.5732876562191949e+01 -2.7748135136002587e+00 7.1672656278750102e+00 0 0 -1
172 259 9 4.1699999999999998e-01 -1.5918993050277640e+01 -2.3793043032314500e+00 6.3156994285772941e+00 0 0 -1
175 260 9 4.1699999999999998e-01 -1.5963302401864702e+01 -5.3174285435592583e-01 5.1212889682357350e+00 0 0 -1
176 260 9 4.1699999999999998e-01 -1.6156141347888550e+01 -1.4037456195615530e+00 3.8988647306471531e+00 0 0 -1
174 260 10 -8.3399999999999996e-01 -1.6082167401396550e+01 -1.4426798878297231e+00 4.8524078480987054e+00 0 0 -1
186 264 10 -8.3399999999999996e-01 -1.8197154867811907e+01 -3.6141775222401158e+00 1.6084697702730670e+00 0 0 0
188 264 9 4.1699999999999998e-01 -1.7425478272638443e+01 -3.3836485235045086e+00 1.0911654895020524e+00 0 0 0
10 10 8 0.0000000000000000e+00 -1.4250176877974660e+01 -4.2657862371473696e+00 1.8109053115947382e+00 0 0 0
11 11 8 0.0000000000000000e+00 -1.1579307292854654e+01 -6.3730363608775322e+00 1.8497939223016227e+00 0 0 0
12 12 8 0.0000000000000000e+00 -1.1806958218953119e+01 -3.6318964297258858e+00 5.2785800288706808e-01 0 0 0
13 13 8 0.0000000000000000e+00 -1.3732327092101993e+01 -6.3299732963420938e+00 3.6031898728555447e+00 0 0 0
14 14 8 0.0000000000000000e+00 -1.4875800377274180e+01 -5.5615236733794431e+00 6.1654172375811847e+00 0 0 0
15 15 8 0.0000000000000000e+00 -1.1969700870187078e+01 -5.3518002750733560e+00 5.6545917106462040e+00 0 0 0
16 16 8 0.0000000000000000e+00 -1.1570515227486634e+01 -3.8111112507047014e+00 3.2843664661108507e+00 0 0 0
26 26 8 0.0000000000000000e+00 -1.3172357852378068e+01 -1.7016805301781728e+00 2.3040499110753716e+00 0 0 0
27 27 8 0.0000000000000000e+00 -1.0063796906923759e+01 -1.3902694940163438e+00 2.9454105715075523e+00 0 0 0
28 28 8 0.0000000000000000e+00 -1.1662775761094675e+01 -7.8992333535782810e-01 1.7277651730145210e-01 0 0 0
29 29 8 0.0000000000000000e+00 -1.4000315388866040e+01 -3.3975145650343803e+00 4.5536206187412152e+00 0 0 0
31 31 8 0.0000000000000000e+00 -1.0274624469479781e+01 -3.0142096215945546e+00 5.6481225729628939e+00 0 0 0
32 32 8 0.0000000000000000e+00 -1.2283546220068249e+01 -1.0836403256317557e+00 4.7810325085726264e+00 0 0 0
190 265 9 4.1699999999999998e-01 -1.6218849429451829e+01 -6.2245152420389145e+00 3.5595064514794266e+00 0 0 0
198 268 10 -8.3399999999999996e-01 -1.6978387370028830e+01 -4.1606325206990320e+00 4.1194484054808056e+00 0 0 0
199 268 9 4.1699999999999998e-01 -1.6790935527444631e+01 -3.2325354210507333e+00 4.2599101487258197e+00 0 0 0
200 268 9 4.1699999999999998e-01 -1.7628256378909661e+01 -4.1705371146687167e+00 3.4167363841281149e+00 0 0 0
201 269 10 -8.3399999999999996e-01 -1.7804480508897996e+01 -5.3775591322838272e+00 6.3589634267471578e+00 0 0 0
202 269 9 4.1699999999999998e-01 -1.7422732783786621e+01 -5.1174592568659785e+00 5.5206027635749209e+00 0 0 0
203 269 9 4.1699999999999998e-01 -1.7373043934344061e+01 -4.8165720324243404e+00 7.0034693041774476e+00 0 0 0
225 277 10 -8.3399999999999996e-01 -1.6124573445429082e+01 -1.3170408265458402e+00 1.9417386435242585e+00 0 0 0
226 277 9 4.1699999999999998e-01 -1.5219501243870008e+01 -1.4227036340698413e+00 1.6486319419670339e+00 0 0 0
227 277 9 4.1699999999999998e-01 -1.6290276012462140e+01 -3.7667152071865140e-01 1.8748037420012027e+00 0 0 0
47 47 8 0.0000000000000000e+00 -9.9040603873337254e+00 -1.8134214077802530e-01 5.8098990432785156e+00 0 0 0
123 123 8 0.0000000000000000e+00 -6.6121418135724186e+00 4.5381640188525125e+00 2.5582915654169325e+00 0 0 0
187 264 9 4.1699999999999998e-01 -1.8903065913852508e+01 -3.0868558175994578e+00 1.2344999868803719e+00 0 0 0
193 266 9 4.1699999999999998e-01 -1.7824111804839184e+01 -5.5441213774543874e+00 1.2940982919409929e+00 0 0 0
243 283 10 -8.3399999999999996e-01 -1.9631631691030961e+01 4.7737338351912282e+00 7.2036923534308812e+00 0 0 -1
36 36 8 0.0000000000000000e+00 -9.3479559845608122e+00 2.5725937596404789e+00 6.4478001244584489e+00 0 0 -1
281 295 9 4.1699999999999998e-01 -2.5714166204031965e+00 -3.3607947642177129e+00 5.3908685376792524e+00 0 0 -1
282 296 10 -8.3399999999999996e-01 -2.3628123347967893e+00 -6.0239663753139916e-01 6.8311710337309561e+00 0 0 -1
283 296 9 4.1699999999999998e-01 -2.2291565034762022e+00 -3.3929927660312370e-01 5.9205954346813083e+00 0 0 -1
130 129 5 -2.8000000000000003e-01 -1.0835693617319504e+00 -3.3409654835026781e+00 1.6362867400298047e+00 0 0 0
129 129 7 1.3300000000000001e+00 -1.7074628379498398e+00 -3.9873972007397342e+00 2.9564053254560889e+00 0 0 0
359 321 9 4.1699999999999998e-01 -3.4919496433722133e+00 7.0053980605753354e+00 5.3754390692066893e+00 0 0 0
68 68 8 0.0000000000000000e+00 -5.5526312336832326e+00 -3.9665883794743766e+00 7.3765164615927370e+00 0 0 -1
73 73 8 0.0000000000000000e+00 -9.2506644770526254e+00 -6.6654314780254635e+00 4.2394169083004912e-01 0 0 0
74 74 8 0.0000000000000000e+00 -9.5568630862955768e+00 -5.4662471076169421e+00 3.9601039746857887e+00 0 0 0
75 75 8 0.0000000000000000e+00 -7.0455981132036491e+00 -5.7449259938036734e+00 2.1584674527761241e+00 0 0 0
76 76 8 0.0000000000000000e+00 -4.9870598906825752e+00 -5.1694562542732241e+00 3.4866760332314989e-01 0 0 0
78 78 8 0.0000000000000000e+00 -8.2741391273230800e+00 -5.0181753836164447e+00 6.5037838537487067e+00 0 0 0
79 79 8 0.0000000000000000e+00 -6.0663623760659595e+00 -6.7985413839337738e+00 7.0093906346063086e+00 0 0 0
80 80 8 0.0000000000000000e+00 -5.9625310119837795e+00 -5.1058122327672057e+00 4.8722823889156013e+00 0 0 0
89 89 8 0.0000000000000000e+00 -9.2367627206991845e+00 -4.0438980763954637e+00 1.6498521567736890e+00 0 0 0
90 90 8 0.0000000000000000e+00 -7.6015127079929696e+00 -1.4341634488623520e+00 1.3947635425487106e+00 0 0 0
91 91 8 0.0000000000000000e+00 -5.6637053895279550e+00 -3.3500075279928954e+00 2.3362651983816685e+00 0 0 0
92 92 8 0.0000000000000000e+00 -3.5821824382034033e+00 -2.1640527144143018e+00 9.2450842568114822e-01 0 0 0
93 93 8 0.0000000000000000e+00 -7.8339533737822959e+00 -3.2493112863708271e+00 4.0929584669197876e+00 0 0 0
94 94 8 0.0000000000000000e+00 -7.8194076867281677e+00 -2.0248723662294741e+00 6.6401785700498186e+00 0 0 0
95 95 8 0.0000000000000000e+00 -5.2716548583002609e+00 -2.2445071865763744e+00 4.9560620638936168e+00 0 0 0
96 96 8 0.0000000000000000e+00 -5.0648225935313578e+00 -4.7111242427982819e-01 2.7531353495792117e+00 0 0 0
132 129 6 -6.5000000000000002e-01 -2.3443382011499421e+00 -2.9686066253120331e+00 3.7460735425745133e+00 0 0 0
297 301 10 -8.3399999999999996e-01 -3.3154498927919853e+00 -6.2470265289782239e+00 4.7796064971121472e+00 0 0 0
298 301 9 4.1699999999999998e-01 -3.3170247405239972e+00 -5.9912470858967408e+00 3.8572147406066679e+00 0 0 0
299 301 9 4.1699999999999998e-01 -3.4525408936990178e+00 -5.4281665363258940e+00 5.2559541375324814e+00 0 0 0
300 302 10 -8.3399999999999996e-01 -1.6497399846714906e+00 -6.1689557716903662e+00 -7.0745154167971975e+00 0 0 1
301 302 9 4.1699999999999998e-01 -2.0472106761200752e+00 -5.5150286963296411e+00 7.1445214162057216e+00 0 0 0
302 302 9 4.1699999999999998e-01 -1.2991622354030281e+00 -6.8310403711298546e+00 7.1237298526987569e+00 0 0 0
303 303 10 -8.3399999999999996e-01 -2.2406206736268568e+00 -3.4193384101588858e-01 4.1349157294623478e+00 0 0 0
304 303 9 4.1699999999999998e-01 -2.4793385230695826e+00 3.9455190372025793e-02 3.2900559268169856e+00 0 0 0
305 303 9 4.1699999999999998e-01 -2.0022130693504856e+00 -1.2463076169601996e+00 3.9311959307401372e+00 0 0 0
109 109 8 0.0000000000000000e+00 -7.4553922156047454e+00 -3.3599061753116688e-01 4.1828402326813157e+00 0 0 0
131 129 6 -6.5000000000000002e-01 -2.6280321369918043e+00 -5.0448294932366577e+00 2.5366617798379836e+00 0 0 0
209 271 9 4.1699999999999998e-01 -1.7551066105892858e+01 -2.4067069604729507e+00 -5.3062259816124664e+00 0 0 0
320 308 9 4.1699999999999998e-01 -3.4091124492005189e+00 4.9541493687416089e+00 2.8930886411040300e+00 0 0 0
349 318 9 4.1699999999999998e-01 -2.4394489622145028e+00 7.3054183355643776e+00 3.1510003781958247e+00 0 0 0
134 129 3 -2.8000000000000003e-01 -3.7002985023753898e-01 -2.0953610786310950e+00 1.7387746636280268e+00 0 0 0
133 129 6 -6.5000000000000002e-01 -5.9401101090573671e-01 -4.4656795127015521e+00 3.7203780128494088e+00 0 0 0
403 336 9 4.1699999999999998e-01 -7.7377164041065816e-01 -3.9415975354836679e+00 6.8250658102627595e+00 0 0 0
439 348 9 4.1699999999999998e-01 -4.4855442598627199e-01 5.5674825484713777e+00 -5.5116809346954705e+00 0 0 1
54 54 8 0.0000000000000000e+00 -1.3241746218792901e+01 4.9775632078106309e+00 -8.9698698999548208e-03 0 0 0
228 278 10 -8.3399999999999996e-01 -1.6681810936532290e+01 1.4228535872952073e+00 1.2962312844567729e+00 0 0 0
230 278 9 4.1699999999999998e-01 -1.6518133002345408e+01 1.2252891475025238e+00 3.7405444616629868e-01 0 0 0
207 271 10 -8.3399999999999996e-01 -1.7776889713715732e+01 -3.0177662511602237e+00 -6.0075408766806735e+00 0 0 0
189 265 10 -8.3399999999999996e-01 -1.6527964403584676e+01 -6.9527378421492871e+00 3.0206446556323865e+00 0 0 0
191 265 9 4.1699999999999998e-01 -1.6585273135997220e+01 7.1021484226951159e+00 3.6261195319990862e+00 0 -1 0
675 427 9 4.1699999999999998e-01 -1.7048769843906772e+01 1.5776700316082986e+00 4.0675178935069640e+00 1 0 0